M 0.0 nn 7 x 500 y 500 rp Sr
M 0.0 prop Propagation/TwoRayGround ant Antenna/OmniAntenna
s 0.000169789 _0_ RTR  --- 0 sr 47 [0 0 0 0] ------- [0:255 -1:255 1 0] [ sh:1 , s: 0 , seq: 0 , p: 0 , n: -1 , d: -1 , l: 27 ] 
r 0.001310137 _6_ RTR  --- 0 sr 47 [0 ffffffff 0 800] ------- [0:255 -1:255 1 0] [ sh:1 , s: 0 , seq: 0 , p: 0 , n: -1 , d: -1 , l: 27 ] 
r 0.001310315 _4_ RTR  --- 0 sr 47 [0 ffffffff 0 800] ------- [0:255 -1:255 1 0] [ sh:1 , s: 0 , seq: 0 , p: 0 , n: -1 , d: -1 , l: 27 ] 
s 0.007102330 _2_ RTR  --- 2 sr 47 [0 0 0 0] ------- [2:255 -1:255 1 0] [ sh:1 , s: 2 , seq: 0 , p: 2 , n: -1 , d: -1 , l: 27 ] 
r 0.008402770 _3_ RTR  --- 2 sr 47 [0 ffffffff 2 800] ------- [2:255 -1:255 1 0] [ sh:1 , s: 2 , seq: 0 , p: 2 , n: -1 , d: -1 , l: 27 ] 
r 0.008402830 _1_ RTR  --- 2 sr 47 [0 ffffffff 2 800] ------- [2:255 -1:255 1 0] [ sh:1 , s: 2 , seq: 0 , p: 2 , n: -1 , d: -1 , l: 27 ] 
r 0.008402919 _5_ RTR  --- 2 sr 47 [0 ffffffff 2 800] ------- [2:255 -1:255 1 0] [ sh:1 , s: 2 , seq: 0 , p: 2 , n: -1 , d: -1 , l: 27 ] 
s 0.044061336 _3_ RTR  --- 3 sr 47 [0 0 0 0] ------- [3:255 -1:255 1 0] [ sh:1 , s: 3 , seq: 0 , p: 3 , n: -1 , d: -1 , l: 27 ] 
r 0.045241776 _2_ RTR  --- 3 sr 47 [0 ffffffff 3 800] ------- [3:255 -1:255 1 0] [ sh:1 , s: 3 , seq: 0 , p: 3 , n: -1 , d: -1 , l: 27 ] 
r 0.045241861 _5_ RTR  --- 3 sr 47 [0 ffffffff 3 800] ------- [3:255 -1:255 1 0] [ sh:1 , s: 3 , seq: 0 , p: 3 , n: -1 , d: -1 , l: 27 ] 
s 0.156480886 _6_ RTR  --- 6 sr 47 [0 0 0 0] ------- [6:255 -1:255 1 0] [ sh:1 , s: 6 , seq: 0 , p: 6 , n: -1 , d: -1 , l: 27 ] 
r 0.157961234 _0_ RTR  --- 6 sr 47 [0 ffffffff 6 800] ------- [6:255 -1:255 1 0] [ sh:1 , s: 6 , seq: 0 , p: 6 , n: -1 , d: -1 , l: 27 ] 
r 0.157961551 _4_ RTR  --- 6 sr 47 [0 ffffffff 6 800] ------- [6:255 -1:255 1 0] [ sh:1 , s: 6 , seq: 0 , p: 6 , n: -1 , d: -1 , l: 27 ] 
s 0.220586691 _4_ RTR  --- 4 sr 47 [0 0 0 0] ------- [4:255 -1:255 1 0] [ sh:1 , s: 4 , seq: 0 , p: 4 , n: -1 , d: -1 , l: 27 ] 
r 0.221887217 _0_ RTR  --- 4 sr 47 [0 ffffffff 4 800] ------- [4:255 -1:255 1 0] [ sh:1 , s: 4 , seq: 0 , p: 4 , n: -1 , d: -1 , l: 27 ] 
r 0.221887356 _6_ RTR  --- 4 sr 47 [0 ffffffff 4 800] ------- [4:255 -1:255 1 0] [ sh:1 , s: 4 , seq: 0 , p: 4 , n: -1 , d: -1 , l: 27 ] 
r 0.221887472 _1_ RTR  --- 4 sr 47 [0 ffffffff 4 800] ------- [4:255 -1:255 1 0] [ sh:1 , s: 4 , seq: 0 , p: 4 , n: -1 , d: -1 , l: 27 ] 
s 0.277940358 _1_ RTR  --- 1 sr 47 [0 0 0 0] ------- [1:255 -1:255 1 0] [ sh:1 , s: 1 , seq: 0 , p: 1 , n: -1 , d: -1 , l: 27 ] 
r 0.279040858 _2_ RTR  --- 1 sr 47 [0 ffffffff 1 800] ------- [1:255 -1:255 1 0] [ sh:1 , s: 1 , seq: 0 , p: 1 , n: -1 , d: -1 , l: 27 ] 
r 0.279041139 _4_ RTR  --- 1 sr 47 [0 ffffffff 1 800] ------- [1:255 -1:255 1 0] [ sh:1 , s: 1 , seq: 0 , p: 1 , n: -1 , d: -1 , l: 27 ] 
s 0.399577727 _5_ RTR  --- 5 sr 47 [0 0 0 0] ------- [5:255 -1:255 1 0] [ sh:1 , s: 5 , seq: 0 , p: 5 , n: -1 , d: -1 , l: 27 ] 
r 0.400858252 _3_ RTR  --- 5 sr 47 [0 ffffffff 5 800] ------- [5:255 -1:255 1 0] [ sh:1 , s: 5 , seq: 0 , p: 5 , n: -1 , d: -1 , l: 27 ] 
r 0.400858316 _2_ RTR  --- 5 sr 47 [0 ffffffff 5 800] ------- [5:255 -1:255 1 0] [ sh:1 , s: 5 , seq: 0 , p: 5 , n: -1 , d: -1 , l: 27 ] 
M 5.00000 0 (33.36, 370.44, 0.00), (89.66, 263.49), 15.15
P 5.000000 _0_ Routing Table
P	dest 	next 	elapsed 	encounter 	expire
P	4	4	0.221887	0.221887	30.221887
P	6	6	0.157961	0.157961	30.157961
P 5.000000 _1_ Routing Table
P	dest 	next 	elapsed 	encounter 	expire
P	0	4	0.221887	0.221887	30.221887
P	2	2	0.008403	0.008403	30.008403
P	4	4	0.221887	0.221887	30.221887
P	6	4	0.221887	0.221887	30.221887
P 5.000000 _2_ Routing Table
P	dest 	next 	elapsed 	encounter 	expire
P	0	1	0.279041	0.279041	30.279041
P	1	1	0.279041	0.279041	30.279041
P	3	3	0.045242	0.045242	30.045242
P	4	1	0.279041	0.279041	30.279041
P	5	5	0.400858	0.400858	30.400858
P	6	1	0.279041	0.279041	30.279041
P 5.000000 _3_ Routing Table
P	dest 	next 	elapsed 	encounter 	expire
P	2	2	0.008403	0.008403	30.008403
P	5	5	0.400858	0.400858	30.400858
P 5.000000 _4_ Routing Table
P	dest 	next 	elapsed 	encounter 	expire
P	0	0	0.001310	0.001310	30.001310
P	1	1	0.279041	0.279041	30.279041
P	2	1	0.279041	0.279041	30.279041
P	6	6	0.157962	0.157962	30.157962
P 5.000000 _5_ Routing Table
P	dest 	next 	elapsed 	encounter 	expire
P	2	2	0.008403	0.008403	30.008403
P	3	3	0.045242	0.045242	30.045242
P 5.000000 _6_ Routing Table
P	dest 	next 	elapsed 	encounter 	expire
P	0	0	0.001310	0.001310	30.001310
P	4	4	0.221887	0.221887	30.221887
s 5.000000000 _5_ AGT  --- 7 cbr 300 [0 0 0 0] ------- [5:0 6:0 32 0] [0] 0 0
r 5.000000000 _5_ RTR  --- 7 cbr 300 [0 0 0 0] ------- [5:0 6:0 32 0] [0] 0 0
s 5.129043974 _5_ RTR  --- 7 sr 1547 [0 0 0 0] ------- [5:255 6:255 32 3] [ sh:2 , s: 5 , seq: 1 , p: 5 , n: 3 , d: 6 , l: 27 ] 
r 5.146534651 _3_ RTR  --- 7 sr 1547 [13a 3 5 800] ------- [5:255 6:255 32 3] [ sh:2 , s: 5 , seq: 1 , p: 5 , n: 3 , d: 6 , l: 27 ] 
s 5.174370513 _5_ RTR  --- 7 sr 1547 [0 0 0 0] ------- [5:255 6:255 32 3] [ sh:2 , s: 5 , seq: 1 , p: 5 , n: 3 , d: 6 , l: 27 ] 
r 5.188028089 _3_ RTR  --- 7 sr 1547 [13a 3 5 800] ------- [5:255 6:255 32 3] [ sh:2 , s: 5 , seq: 1 , p: 5 , n: 3 , d: 6 , l: 27 ] 
s 5.204342838 _5_ RTR  --- 7 sr 1547 [0 0 0 0] ------- [5:255 6:255 32 3] [ sh:2 , s: 5 , seq: 1 , p: 5 , n: 3 , d: 6 , l: 27 ] 
r 5.218320414 _3_ RTR  --- 7 sr 1547 [13a 3 5 800] ------- [5:255 6:255 32 3] [ sh:2 , s: 5 , seq: 1 , p: 5 , n: 3 , d: 6 , l: 27 ] 
s 5.259324397 _5_ RTR  --- 7 sr 1547 [0 0 0 0] ------- [5:255 6:255 32 3] [ sh:2 , s: 5 , seq: 1 , p: 5 , n: 3 , d: 6 , l: 27 ] 
r 5.273021973 _3_ RTR  --- 7 sr 1547 [13a 3 5 800] ------- [5:255 6:255 32 3] [ sh:2 , s: 5 , seq: 1 , p: 5 , n: 3 , d: 6 , l: 27 ] 
f 5.593682621 _3_ RTR  --- 7 sr 1547 [13a 3 5 800] ------- [5:255 6:255 32 2] [ sh:2 , s: 5 , seq: 1 , p: 3 , n: 2 , d: 6 , l: 27 ] 
r 5.610532702 _2_ RTR  --- 7 sr 1547 [13a 2 3 800] ------- [5:255 6:255 32 2] [ sh:2 , s: 5 , seq: 1 , p: 3 , n: 2 , d: 6 , l: 27 ] 
f 5.702103764 _3_ RTR  --- 7 sr 1547 [13a 3 5 800] ------- [5:255 6:255 32 2] [ sh:2 , s: 5 , seq: 1 , p: 3 , n: 2 , d: 6 , l: 27 ] 
r 5.716221085 _2_ RTR  --- 7 sr 1547 [13a 2 3 800] ------- [5:255 6:255 32 2] [ sh:2 , s: 5 , seq: 1 , p: 3 , n: 2 , d: 6 , l: 27 ] 
s 5.943721773 _5_ RTR  --- 7 sr 1547 [0 0 0 0] ------- [5:255 6:255 32 2] [ sh:2 , s: 5 , seq: 1 , p: 5 , n: 2 , d: 6 , l: 27 ] 
r 5.960452895 _2_ RTR  --- 7 sr 1547 [13a 2 5 800] ------- [5:255 6:255 32 2] [ sh:2 , s: 5 , seq: 1 , p: 5 , n: 2 , d: 6 , l: 27 ] 
s 5.973132477 _5_ RTR  --- 7 sr 1547 [0 0 0 0] ------- [5:255 6:255 32 2] [ sh:2 , s: 5 , seq: 1 , p: 5 , n: 2 , d: 6 , l: 27 ] 
r 5.986910243 _2_ RTR  --- 7 sr 1547 [13a 2 5 800] ------- [5:255 6:255 32 2] [ sh:2 , s: 5 , seq: 1 , p: 5 , n: 2 , d: 6 , l: 27 ] 
P 6.000000 _0_ Routing Table
P	dest 	next 	elapsed 	encounter 	expire
P	4	4	0.221887	0.221887	30.221887
P	6	6	0.157961	0.157961	30.157961
P 6.000000 _1_ Routing Table
P	dest 	next 	elapsed 	encounter 	expire
P	0	4	0.221887	0.221887	30.221887
P	2	2	0.008403	0.008403	30.008403
P	4	4	0.221887	0.221887	30.221887
P	6	4	0.221887	0.221887	30.221887
P 6.000000 _2_ Routing Table
P	dest 	next 	elapsed 	encounter 	expire
P	0	1	0.279041	0.279041	30.279041
P	1	1	0.279041	0.279041	30.279041
P	3	3	0.045242	0.045242	30.045242
P	4	1	0.279041	0.279041	30.279041
P	5	5	0.400858	0.400858	30.400858
P	6	1	0.279041	0.279041	30.279041
P 6.000000 _3_ Routing Table
P	dest 	next 	elapsed 	encounter 	expire
P	2	2	0.008403	0.008403	30.008403
P	5	5	0.400858	0.400858	30.400858
P 6.000000 _4_ Routing Table
P	dest 	next 	elapsed 	encounter 	expire
P	0	0	0.001310	0.001310	30.001310
P	1	1	0.279041	0.279041	30.279041
P	2	1	0.279041	0.279041	30.279041
P	6	6	0.157962	0.157962	30.157962
P 6.000000 _5_ Routing Table
P	dest 	next 	elapsed 	encounter 	expire
P	2	2	0.008403	0.008403	30.008403
P	3	3	0.045242	0.045242	30.045242
P 6.000000 _6_ Routing Table
P	dest 	next 	elapsed 	encounter 	expire
P	0	0	0.001310	0.001310	30.001310
P	4	4	0.221887	0.221887	30.221887
s 6.000000000 _5_ AGT  --- 8 cbr 300 [0 0 0 0] ------- [5:0 6:0 32 0] [1] 0 0
r 6.000000000 _5_ RTR  --- 8 cbr 300 [0 0 0 0] ------- [5:0 6:0 32 0] [1] 0 0
f 6.013778736 _2_ RTR  --- 7 sr 1547 [13a 2 5 800] ------- [5:255 6:255 32 1] [ sh:2 , s: 5 , seq: 1 , p: 2 , n: 1 , d: 6 , l: 27 ] 
r 6.030349235 _1_ RTR  --- 7 sr 1547 [13a 1 2 800] ------- [5:255 6:255 32 1] [ sh:2 , s: 5 , seq: 1 , p: 2 , n: 1 , d: 6 , l: 27 ] 
s 6.093107127 _5_ RTR  --- 8 sr 1547 [0 0 0 0] ------- [5:255 6:255 32 3] [ sh:2 , s: 5 , seq: 2 , p: 5 , n: 3 , d: 6 , l: 27 ] 
r 6.106764702 _3_ RTR  --- 8 sr 1547 [13a 3 5 800] ------- [5:255 6:255 32 3] [ sh:2 , s: 5 , seq: 2 , p: 5 , n: 3 , d: 6 , l: 27 ] 
f 6.163658500 _2_ RTR  --- 7 sr 1547 [13a 2 5 800] ------- [5:255 6:255 32 1] [ sh:2 , s: 5 , seq: 1 , p: 2 , n: 1 , d: 6 , l: 27 ] 
r 6.177395999 _1_ RTR  --- 7 sr 1547 [13a 1 2 800] ------- [5:255 6:255 32 1] [ sh:2 , s: 5 , seq: 1 , p: 2 , n: 1 , d: 6 , l: 27 ] 
s 6.386347869 _5_ RTR  --- 8 sr 1547 [0 0 0 0] ------- [5:255 6:255 32 3] [ sh:2 , s: 5 , seq: 2 , p: 5 , n: 3 , d: 6 , l: 27 ] 
s 6.392493551 _5_ RTR  --- 8 sr 1547 [0 0 0 0] ------- [5:255 6:255 32 3] [ sh:2 , s: 5 , seq: 2 , p: 5 , n: 3 , d: 6 , l: 27 ] 
r 6.400065444 _3_ RTR  --- 8 sr 1547 [13a 3 5 800] ------- [5:255 6:255 32 3] [ sh:2 , s: 5 , seq: 2 , p: 5 , n: 3 , d: 6 , l: 27 ] 
r 6.414027545 _3_ RTR  --- 8 sr 1547 [13a 3 5 800] ------- [5:255 6:255 32 3] [ sh:2 , s: 5 , seq: 2 , p: 5 , n: 3 , d: 6 , l: 27 ] 
s 6.473408095 _5_ RTR  --- 8 sr 1547 [0 0 0 0] ------- [5:255 6:255 32 3] [ sh:2 , s: 5 , seq: 2 , p: 5 , n: 3 , d: 6 , l: 27 ] 
r 6.487225670 _3_ RTR  --- 8 sr 1547 [13a 3 5 800] ------- [5:255 6:255 32 3] [ sh:2 , s: 5 , seq: 2 , p: 5 , n: 3 , d: 6 , l: 27 ] 
f 6.793056240 _3_ RTR  --- 8 sr 1547 [13a 3 5 800] ------- [5:255 6:255 32 2] [ sh:2 , s: 5 , seq: 2 , p: 3 , n: 2 , d: 6 , l: 27 ] 
r 6.806793561 _2_ RTR  --- 8 sr 1547 [13a 2 3 800] ------- [5:255 6:255 32 2] [ sh:2 , s: 5 , seq: 2 , p: 3 , n: 2 , d: 6 , l: 27 ] 
f 6.864020886 _1_ RTR  --- 7 sr 1547 [13a 1 2 800] ------- [5:255 6:255 32 4] [ sh:2 , s: 5 , seq: 1 , p: 1 , n: 4 , d: 6 , l: 27 ] 
s 6.867920265 _5_ RTR  --- 8 sr 1547 [0 0 0 0] ------- [5:255 6:255 32 2] [ sh:2 , s: 5 , seq: 2 , p: 5 , n: 2 , d: 6 , l: 27 ] 
r 6.881073355 _4_ RTR  --- 7 sr 1547 [13a 4 1 800] ------- [5:255 6:255 32 4] [ sh:2 , s: 5 , seq: 1 , p: 1 , n: 4 , d: 6 , l: 27 ] 
r 6.895620461 _2_ RTR  --- 8 sr 1547 [13a 2 5 800] ------- [5:255 6:255 32 2] [ sh:2 , s: 5 , seq: 2 , p: 5 , n: 2 , d: 6 , l: 27 ] 
s 6.901005931 _5_ RTR  --- 8 sr 1547 [0 0 0 0] ------- [5:255 6:255 32 2] [ sh:2 , s: 5 , seq: 2 , p: 5 , n: 2 , d: 6 , l: 27 ] 
r 6.915203698 _2_ RTR  --- 8 sr 1547 [13a 2 5 800] ------- [5:255 6:255 32 2] [ sh:2 , s: 5 , seq: 2 , p: 5 , n: 2 , d: 6 , l: 27 ] 
f 6.937323152 _3_ RTR  --- 8 sr 1547 [13a 3 5 800] ------- [5:255 6:255 32 2] [ sh:2 , s: 5 , seq: 2 , p: 3 , n: 2 , d: 6 , l: 27 ] 
r 6.951120472 _2_ RTR  --- 8 sr 1547 [13a 2 3 800] ------- [5:255 6:255 32 2] [ sh:2 , s: 5 , seq: 2 , p: 3 , n: 2 , d: 6 , l: 27 ] 
P 7.000000 _0_ Routing Table
P	dest 	next 	elapsed 	encounter 	expire
P	4	4	0.221887	0.221887	30.221887
P	6	6	0.157961	0.157961	30.157961
P 7.000000 _1_ Routing Table
P	dest 	next 	elapsed 	encounter 	expire
P	0	4	0.221887	0.221887	30.221887
P	2	2	0.008403	0.008403	30.008403
P	4	4	0.221887	0.221887	30.221887
P	6	4	0.221887	0.221887	30.221887
P 7.000000 _2_ Routing Table
P	dest 	next 	elapsed 	encounter 	expire
P	0	1	0.279041	0.279041	30.279041
P	1	1	0.279041	0.279041	30.279041
P	3	3	0.045242	0.045242	30.045242
P	4	1	0.279041	0.279041	30.279041
P	5	5	0.400858	0.400858	30.400858
P	6	1	0.279041	0.279041	30.279041
P 7.000000 _3_ Routing Table
P	dest 	next 	elapsed 	encounter 	expire
P	2	2	0.008403	0.008403	30.008403
P	5	5	0.400858	0.400858	30.400858
P 7.000000 _4_ Routing Table
P	dest 	next 	elapsed 	encounter 	expire
P	0	0	0.001310	0.001310	30.001310
P	1	1	0.279041	0.279041	30.279041
P	2	1	0.279041	0.279041	30.279041
P	6	6	0.157962	0.157962	30.157962
P 7.000000 _5_ Routing Table
P	dest 	next 	elapsed 	encounter 	expire
P	2	2	0.008403	0.008403	30.008403
P	3	3	0.045242	0.045242	30.045242
P 7.000000 _6_ Routing Table
P	dest 	next 	elapsed 	encounter 	expire
P	0	0	0.001310	0.001310	30.001310
P	4	4	0.221887	0.221887	30.221887
s 7.000000000 _5_ AGT  --- 9 cbr 300 [0 0 0 0] ------- [5:0 6:0 32 0] [2] 0 0
r 7.000000000 _5_ RTR  --- 9 cbr 300 [0 0 0 0] ------- [5:0 6:0 32 0] [2] 0 0
s 7.001675134 _5_ RTR  --- 9 sr 1547 [0 0 0 0] ------- [5:255 6:255 32 3] [ sh:2 , s: 5 , seq: 3 , p: 5 , n: 3 , d: 6 , l: 27 ] 
r 7.015612710 _3_ RTR  --- 9 sr 1547 [13a 3 5 800] ------- [5:255 6:255 32 3] [ sh:2 , s: 5 , seq: 3 , p: 5 , n: 3 , d: 6 , l: 27 ] 
f 7.016396178 _2_ RTR  --- 8 sr 1547 [13a 2 3 800] ------- [5:255 6:255 32 1] [ sh:2 , s: 5 , seq: 2 , p: 2 , n: 1 , d: 6 , l: 27 ] 
r 7.030513677 _1_ RTR  --- 8 sr 1547 [13a 1 2 800] ------- [5:255 6:255 32 1] [ sh:2 , s: 5 , seq: 2 , p: 2 , n: 1 , d: 6 , l: 27 ] 
f 7.152494486 _4_ RTR  --- 7 sr 1547 [13a 4 1 800] ------- [5:255 6:255 32 6] [ sh:2 , s: 5 , seq: 1 , p: 4 , n: 6 , d: 6 , l: 27 ] 
s 7.160867407 _5_ RTR  --- 9 sr 1547 [0 0 0 0] ------- [5:255 6:255 32 3] [ sh:2 , s: 5 , seq: 3 , p: 5 , n: 3 , d: 6 , l: 27 ] 
r 7.169086142 _6_ RTR  --- 7 sr 1547 [13a 6 4 800] ------- [5:255 6:255 32 6] [ sh:2 , s: 5 , seq: 1 , p: 4 , n: 6 , d: 6 , l: 27 ] 
f 7.182623662 _2_ RTR  --- 8 sr 1547 [13a 2 5 800] ------- [5:255 6:255 32 1] [ sh:2 , s: 5 , seq: 2 , p: 2 , n: 1 , d: 6 , l: 27 ] 
r 7.183078392 _3_ RTR  --- 9 sr 1547 [13a 3 5 800] ------- [5:255 6:255 32 3] [ sh:2 , s: 5 , seq: 3 , p: 5 , n: 3 , d: 6 , l: 27 ] 
r 7.197560332 _1_ RTR  --- 8 sr 1547 [13a 1 2 800] ------- [5:255 6:255 32 1] [ sh:2 , s: 5 , seq: 2 , p: 2 , n: 1 , d: 6 , l: 27 ] 
s 7.439997816 _5_ RTR  --- 9 sr 1547 [0 0 0 0] ------- [5:255 6:255 32 3] [ sh:2 , s: 5 , seq: 3 , p: 5 , n: 3 , d: 6 , l: 27 ] 
s 7.440628739 _5_ RTR  --- 9 sr 1547 [0 0 0 0] ------- [5:255 6:255 32 3] [ sh:2 , s: 5 , seq: 3 , p: 5 , n: 3 , d: 6 , l: 27 ] 
r 7.453635392 _3_ RTR  --- 9 sr 1547 [13a 3 5 800] ------- [5:255 6:255 32 3] [ sh:2 , s: 5 , seq: 3 , p: 5 , n: 3 , d: 6 , l: 27 ] 
f 7.455969601 _1_ RTR  --- 7 sr 1547 [13a 1 2 800] ------- [5:255 6:255 32 4] [ sh:2 , s: 5 , seq: 1 , p: 1 , n: 4 , d: 6 , l: 27 ] 
r 7.467577493 _3_ RTR  --- 9 sr 1547 [13a 3 5 800] ------- [5:255 6:255 32 3] [ sh:2 , s: 5 , seq: 3 , p: 5 , n: 3 , d: 6 , l: 27 ] 
r 7.482084721 _4_ RTR  --- 7 sr 1547 [13a 4 1 800] ------- [5:255 6:255 32 4] [ sh:2 , s: 5 , seq: 1 , p: 1 , n: 4 , d: 6 , l: 27 ] 
r 7.500000000 _6_ RTR  --- 7 sr 1547 [13a 6 4 800] ------- [5:255 6:255 32 6] [ sh:2 , s: 5 , seq: 1 , p: 4 , n: 6 , d: 6 , l: 27 ] 
s 7.579256859 _5_ RTR  --- 9 sr 1547 [0 0 0 0] ------- [5:255 6:255 32 2] [ sh:2 , s: 5 , seq: 3 , p: 5 , n: 2 , d: 6 , l: 27 ] 
r 7.593414625 _2_ RTR  --- 9 sr 1547 [13a 2 5 800] ------- [5:255 6:255 32 2] [ sh:2 , s: 5 , seq: 3 , p: 5 , n: 2 , d: 6 , l: 27 ] 
f 7.742387047 _3_ RTR  --- 9 sr 1547 [13a 3 5 800] ------- [5:255 6:255 32 2] [ sh:2 , s: 5 , seq: 3 , p: 3 , n: 2 , d: 6 , l: 27 ] 
r 7.756144368 _2_ RTR  --- 9 sr 1547 [13a 2 3 800] ------- [5:255 6:255 32 2] [ sh:2 , s: 5 , seq: 3 , p: 3 , n: 2 , d: 6 , l: 27 ] 
f 7.811444942 _4_ RTR  --- 7 sr 1547 [13a 4 1 800] ------- [5:255 6:255 32 6] [ sh:2 , s: 5 , seq: 1 , p: 4 , n: 6 , d: 6 , l: 27 ] 
r 7.825062937 _6_ RTR  --- 7 sr 1547 [13a 6 4 800] ------- [5:255 6:255 32 6] [ sh:2 , s: 5 , seq: 1 , p: 4 , n: 6 , d: 6 , l: 27 ] 
f 7.867826762 _1_ RTR  --- 8 sr 1547 [13a 1 2 800] ------- [5:255 6:255 32 4] [ sh:2 , s: 5 , seq: 2 , p: 1 , n: 4 , d: 6 , l: 27 ] 
r 7.881445106 _4_ RTR  --- 8 sr 1547 [13a 4 1 800] ------- [5:255 6:255 32 4] [ sh:2 , s: 5 , seq: 2 , p: 1 , n: 4 , d: 6 , l: 27 ] 
s 7.925391400 _5_ RTR  --- 9 sr 1547 [0 0 0 0] ------- [5:255 6:255 32 2] [ sh:2 , s: 5 , seq: 3 , p: 5 , n: 2 , d: 6 , l: 27 ] 
r 7.939569166 _2_ RTR  --- 9 sr 1547 [13a 2 5 800] ------- [5:255 6:255 32 2] [ sh:2 , s: 5 , seq: 3 , p: 5 , n: 2 , d: 6 , l: 27 ] 
f 7.948400432 _3_ RTR  --- 9 sr 1547 [13a 3 5 800] ------- [5:255 6:255 32 2] [ sh:2 , s: 5 , seq: 3 , p: 3 , n: 2 , d: 6 , l: 27 ] 
r 7.962597753 _2_ RTR  --- 9 sr 1547 [13a 2 3 800] ------- [5:255 6:255 32 2] [ sh:2 , s: 5 , seq: 3 , p: 3 , n: 2 , d: 6 , l: 27 ] 
P 8.000000 _0_ Routing Table
P	dest 	next 	elapsed 	encounter 	expire
P	4	4	0.221887	0.221887	30.221887
P	6	6	0.157961	0.157961	30.157961
P 8.000000 _1_ Routing Table
P	dest 	next 	elapsed 	encounter 	expire
P	0	4	0.221887	0.221887	30.221887
P	2	2	0.008403	0.008403	30.008403
P	4	4	0.221887	0.221887	30.221887
P	6	4	0.221887	0.221887	30.221887
P 8.000000 _2_ Routing Table
P	dest 	next 	elapsed 	encounter 	expire
P	0	1	0.279041	0.279041	30.279041
P	1	1	0.279041	0.279041	30.279041
P	3	3	0.045242	0.045242	30.045242
P	4	1	0.279041	0.279041	30.279041
P	5	5	0.400858	0.400858	30.400858
P	6	1	0.279041	0.279041	30.279041
P 8.000000 _3_ Routing Table
P	dest 	next 	elapsed 	encounter 	expire
P	2	2	0.008403	0.008403	30.008403
P	5	5	0.400858	0.400858	30.400858
P 8.000000 _4_ Routing Table
P	dest 	next 	elapsed 	encounter 	expire
P	0	0	0.001310	0.001310	30.001310
P	1	1	0.279041	0.279041	30.279041
P	2	1	0.279041	0.279041	30.279041
P	6	6	0.157962	0.157962	30.157962
P 8.000000 _5_ Routing Table
P	dest 	next 	elapsed 	encounter 	expire
P	2	2	0.008403	0.008403	30.008403
P	3	3	0.045242	0.045242	30.045242
P 8.000000 _6_ Routing Table
P	dest 	next 	elapsed 	encounter 	expire
P	0	0	0.001310	0.001310	30.001310
P	4	4	0.221887	0.221887	30.221887
s 8.000000000 _5_ AGT  --- 10 cbr 300 [0 0 0 0] ------- [5:0 6:0 32 0] [3] 0 0
r 8.000000000 _5_ RTR  --- 10 cbr 300 [0 0 0 0] ------- [5:0 6:0 32 0] [3] 0 0
r 8.000000000 _6_ RTR  --- 7 sr 1547 [13a 6 4 800] ------- [5:255 6:255 32 6] [ sh:2 , s: 5 , seq: 1 , p: 4 , n: 6 , d: 6 , l: 27 ] 
f 8.114488436 _2_ RTR  --- 9 sr 1547 [13a 2 5 800] ------- [5:255 6:255 32 1] [ sh:2 , s: 5 , seq: 3 , p: 2 , n: 1 , d: 6 , l: 27 ] 
r 8.128605936 _1_ RTR  --- 9 sr 1547 [13a 1 2 800] ------- [5:255 6:255 32 1] [ sh:2 , s: 5 , seq: 3 , p: 2 , n: 1 , d: 6 , l: 27 ] 
f 8.216705149 _2_ RTR  --- 9 sr 1547 [13a 2 3 800] ------- [5:255 6:255 32 1] [ sh:2 , s: 5 , seq: 3 , p: 2 , n: 1 , d: 6 , l: 27 ] 
f 8.220921546 _4_ RTR  --- 8 sr 1547 [13a 4 1 800] ------- [5:255 6:255 32 6] [ sh:2 , s: 5 , seq: 2 , p: 4 , n: 6 , d: 6 , l: 27 ] 
s 8.229986870 _5_ RTR  --- 10 sr 1547 [0 0 0 0] ------- [5:255 6:255 32 3] [ sh:2 , s: 5 , seq: 4 , p: 5 , n: 3 , d: 6 , l: 27 ] 
r 8.230322648 _1_ RTR  --- 9 sr 1547 [13a 1 2 800] ------- [5:255 6:255 32 1] [ sh:2 , s: 5 , seq: 3 , p: 2 , n: 1 , d: 6 , l: 27 ] 
r 8.244374999 _6_ RTR  --- 8 sr 1547 [13a 6 4 800] ------- [5:255 6:255 32 6] [ sh:2 , s: 5 , seq: 2 , p: 4 , n: 6 , d: 6 , l: 27 ] 
r 8.258667248 _3_ RTR  --- 10 sr 1547 [13a 3 5 800] ------- [5:255 6:255 32 3] [ sh:2 , s: 5 , seq: 4 , p: 5 , n: 3 , d: 6 , l: 27 ] 
f 8.318539716 _1_ RTR  --- 8 sr 1547 [13a 1 2 800] ------- [5:255 6:255 32 4] [ sh:2 , s: 5 , seq: 2 , p: 1 , n: 4 , d: 6 , l: 27 ] 
r 8.332298060 _4_ RTR  --- 8 sr 1547 [13a 4 1 800] ------- [5:255 6:255 32 4] [ sh:2 , s: 5 , seq: 2 , p: 1 , n: 4 , d: 6 , l: 27 ] 
s 8.450719072 _5_ RTR  --- 10 sr 1547 [0 0 0 0] ------- [5:255 6:255 32 3] [ sh:2 , s: 5 , seq: 4 , p: 5 , n: 3 , d: 6 , l: 27 ] 
r 8.464876648 _3_ RTR  --- 10 sr 1547 [13a 3 5 800] ------- [5:255 6:255 32 3] [ sh:2 , s: 5 , seq: 4 , p: 5 , n: 3 , d: 6 , l: 27 ] 
s 8.469959430 _5_ RTR  --- 10 sr 1547 [0 0 0 0] ------- [5:255 6:255 32 3] [ sh:2 , s: 5 , seq: 4 , p: 5 , n: 3 , d: 6 , l: 27 ] 
s 8.478859763 _5_ RTR  --- 10 sr 1547 [0 0 0 0] ------- [5:255 6:255 32 3] [ sh:2 , s: 5 , seq: 4 , p: 5 , n: 3 , d: 6 , l: 27 ] 
r 8.484057005 _3_ RTR  --- 10 sr 1547 [13a 3 5 800] ------- [5:255 6:255 32 3] [ sh:2 , s: 5 , seq: 4 , p: 5 , n: 3 , d: 6 , l: 27 ] 
r 8.498299106 _3_ RTR  --- 10 sr 1547 [13a 3 5 800] ------- [5:255 6:255 32 3] [ sh:2 , s: 5 , seq: 4 , p: 5 , n: 3 , d: 6 , l: 27 ] 
r 8.500000000 _6_ RTR  --- 8 sr 1547 [13a 6 4 800] ------- [5:255 6:255 32 6] [ sh:2 , s: 5 , seq: 2 , p: 4 , n: 6 , d: 6 , l: 27 ] 
f 8.580927960 _3_ RTR  --- 10 sr 1547 [13a 3 5 800] ------- [5:255 6:255 32 2] [ sh:2 , s: 5 , seq: 4 , p: 3 , n: 2 , d: 6 , l: 27 ] 
r 8.594585280 _2_ RTR  --- 10 sr 1547 [13a 2 3 800] ------- [5:255 6:255 32 2] [ sh:2 , s: 5 , seq: 4 , p: 3 , n: 2 , d: 6 , l: 27 ] 
f 8.632374195 _3_ RTR  --- 10 sr 1547 [13a 3 5 800] ------- [5:255 6:255 32 2] [ sh:2 , s: 5 , seq: 4 , p: 3 , n: 2 , d: 6 , l: 27 ] 
r 8.646491515 _2_ RTR  --- 10 sr 1547 [13a 2 3 800] ------- [5:255 6:255 32 2] [ sh:2 , s: 5 , seq: 4 , p: 3 , n: 2 , d: 6 , l: 27 ] 
f 8.689318655 _4_ RTR  --- 8 sr 1547 [13a 4 1 800] ------- [5:255 6:255 32 6] [ sh:2 , s: 5 , seq: 2 , p: 4 , n: 6 , d: 6 , l: 27 ] 
r 8.703536650 _6_ RTR  --- 8 sr 1547 [13a 6 4 800] ------- [5:255 6:255 32 6] [ sh:2 , s: 5 , seq: 2 , p: 4 , n: 6 , d: 6 , l: 27 ] 
s 8.805864089 _5_ RTR  --- 10 sr 1547 [0 0 0 0] ------- [5:255 6:255 32 2] [ sh:2 , s: 5 , seq: 4 , p: 5 , n: 2 , d: 6 , l: 27 ] 
r 8.820041856 _2_ RTR  --- 10 sr 1547 [13a 2 5 800] ------- [5:255 6:255 32 2] [ sh:2 , s: 5 , seq: 4 , p: 5 , n: 2 , d: 6 , l: 27 ] 
s 8.827720838 _5_ RTR  --- 10 sr 1547 [0 0 0 0] ------- [5:255 6:255 32 2] [ sh:2 , s: 5 , seq: 4 , p: 5 , n: 2 , d: 6 , l: 27 ] 
f 8.828628242 _1_ RTR  --- 9 sr 1547 [13a 1 2 800] ------- [5:255 6:255 32 4] [ sh:2 , s: 5 , seq: 3 , p: 1 , n: 4 , d: 6 , l: 27 ] 
r 8.841718605 _2_ RTR  --- 10 sr 1547 [13a 2 5 800] ------- [5:255 6:255 32 2] [ sh:2 , s: 5 , seq: 4 , p: 5 , n: 2 , d: 6 , l: 27 ] 
r 8.855711432 _4_ RTR  --- 9 sr 1547 [13a 4 1 800] ------- [5:255 6:255 32 4] [ sh:2 , s: 5 , seq: 3 , p: 1 , n: 4 , d: 6 , l: 27 ] 
P 9.000000 _0_ Routing Table
P	dest 	next 	elapsed 	encounter 	expire
P	4	4	0.221887	0.221887	30.221887
P	6	6	0.157961	0.157961	30.157961
P 9.000000 _1_ Routing Table
P	dest 	next 	elapsed 	encounter 	expire
P	0	4	0.221887	0.221887	30.221887
P	2	2	0.008403	0.008403	30.008403
P	4	4	0.221887	0.221887	30.221887
P	6	4	0.221887	0.221887	30.221887
P 9.000000 _2_ Routing Table
P	dest 	next 	elapsed 	encounter 	expire
P	0	1	0.279041	0.279041	30.279041
P	1	1	0.279041	0.279041	30.279041
P	3	3	0.045242	0.045242	30.045242
P	4	1	0.279041	0.279041	30.279041
P	5	5	0.400858	0.400858	30.400858
P	6	1	0.279041	0.279041	30.279041
P 9.000000 _3_ Routing Table
P	dest 	next 	elapsed 	encounter 	expire
P	2	2	0.008403	0.008403	30.008403
P	5	5	0.400858	0.400858	30.400858
P 9.000000 _4_ Routing Table
P	dest 	next 	elapsed 	encounter 	expire
P	0	0	0.001310	0.001310	30.001310
P	1	1	0.279041	0.279041	30.279041
P	2	1	0.279041	0.279041	30.279041
P	6	6	0.157962	0.157962	30.157962
P 9.000000 _5_ Routing Table
P	dest 	next 	elapsed 	encounter 	expire
P	2	2	0.008403	0.008403	30.008403
P	3	3	0.045242	0.045242	30.045242
P 9.000000 _6_ Routing Table
P	dest 	next 	elapsed 	encounter 	expire
P	0	0	0.001310	0.001310	30.001310
P	4	4	0.221887	0.221887	30.221887
s 9.000000000 _5_ AGT  --- 11 cbr 300 [0 0 0 0] ------- [5:0 6:0 32 0] [4] 0 0
r 9.000000000 _5_ RTR  --- 11 cbr 300 [0 0 0 0] ------- [5:0 6:0 32 0] [4] 0 0
r 9.000000000 _6_ RTR  --- 8 sr 1547 [13a 6 4 800] ------- [5:255 6:255 32 6] [ sh:2 , s: 5 , seq: 2 , p: 4 , n: 6 , d: 6 , l: 27 ] 
s 9.064920765 _5_ RTR  --- 11 sr 1547 [0 0 0 0] ------- [5:255 6:255 32 3] [ sh:2 , s: 5 , seq: 5 , p: 5 , n: 3 , d: 6 , l: 27 ] 
r 9.078698341 _3_ RTR  --- 11 sr 1547 [13a 3 5 800] ------- [5:255 6:255 32 3] [ sh:2 , s: 5 , seq: 5 , p: 5 , n: 3 , d: 6 , l: 27 ] 
s 9.196410329 _5_ RTR  --- 11 sr 1547 [0 0 0 0] ------- [5:255 6:255 32 3] [ sh:2 , s: 5 , seq: 5 , p: 5 , n: 3 , d: 6 , l: 27 ] 
r 9.210127905 _3_ RTR  --- 11 sr 1547 [13a 3 5 800] ------- [5:255 6:255 32 3] [ sh:2 , s: 5 , seq: 5 , p: 5 , n: 3 , d: 6 , l: 27 ] 
f 9.215180658 _2_ RTR  --- 10 sr 1547 [13a 2 5 800] ------- [5:255 6:255 32 1] [ sh:2 , s: 5 , seq: 4 , p: 2 , n: 1 , d: 6 , l: 27 ] 
r 9.229318157 _1_ RTR  --- 10 sr 1547 [13a 1 2 800] ------- [5:255 6:255 32 1] [ sh:2 , s: 5 , seq: 4 , p: 2 , n: 1 , d: 6 , l: 27 ] 
s 9.271736159 _5_ RTR  --- 11 sr 1547 [0 0 0 0] ------- [5:255 6:255 32 3] [ sh:2 , s: 5 , seq: 5 , p: 5 , n: 3 , d: 6 , l: 27 ] 
r 9.285453735 _3_ RTR  --- 11 sr 1547 [13a 3 5 800] ------- [5:255 6:255 32 3] [ sh:2 , s: 5 , seq: 5 , p: 5 , n: 3 , d: 6 , l: 27 ] 
s 9.290116114 _5_ RTR  --- 11 sr 1547 [0 0 0 0] ------- [5:255 6:255 32 3] [ sh:2 , s: 5 , seq: 5 , p: 5 , n: 3 , d: 6 , l: 27 ] 
r 9.303793689 _3_ RTR  --- 11 sr 1547 [13a 3 5 800] ------- [5:255 6:255 32 3] [ sh:2 , s: 5 , seq: 5 , p: 5 , n: 3 , d: 6 , l: 27 ] 
f 9.354176035 _2_ RTR  --- 10 sr 1547 [13a 2 5 800] ------- [5:255 6:255 32 1] [ sh:2 , s: 5 , seq: 4 , p: 2 , n: 1 , d: 6 , l: 27 ] 
r 9.368113534 _1_ RTR  --- 10 sr 1547 [13a 1 2 800] ------- [5:255 6:255 32 1] [ sh:2 , s: 5 , seq: 4 , p: 2 , n: 1 , d: 6 , l: 27 ] 
f 9.411105464 _1_ RTR  --- 9 sr 1547 [13a 1 2 800] ------- [5:255 6:255 32 4] [ sh:2 , s: 5 , seq: 3 , p: 1 , n: 4 , d: 6 , l: 27 ] 
f 9.415022701 _4_ RTR  --- 9 sr 1547 [13a 4 1 800] ------- [5:255 6:255 32 6] [ sh:2 , s: 5 , seq: 3 , p: 4 , n: 6 , d: 6 , l: 27 ] 
r 9.424763808 _4_ RTR  --- 9 sr 1547 [13a 4 1 800] ------- [5:255 6:255 32 4] [ sh:2 , s: 5 , seq: 3 , p: 1 , n: 4 , d: 6 , l: 27 ] 
r 9.438905803 _6_ RTR  --- 9 sr 1547 [13a 6 4 800] ------- [5:255 6:255 32 6] [ sh:2 , s: 5 , seq: 3 , p: 4 , n: 6 , d: 6 , l: 27 ] 
r 9.500000000 _6_ RTR  --- 9 sr 1547 [13a 6 4 800] ------- [5:255 6:255 32 6] [ sh:2 , s: 5 , seq: 3 , p: 4 , n: 6 , d: 6 , l: 27 ] 
f 9.503967349 _3_ RTR  --- 11 sr 1547 [13a 3 5 800] ------- [5:255 6:255 32 2] [ sh:2 , s: 5 , seq: 5 , p: 3 , n: 2 , d: 6 , l: 27 ] 
r 9.518044669 _2_ RTR  --- 11 sr 1547 [13a 2 3 800] ------- [5:255 6:255 32 2] [ sh:2 , s: 5 , seq: 5 , p: 3 , n: 2 , d: 6 , l: 27 ] 
f 9.631879336 _4_ RTR  --- 9 sr 1547 [13a 4 1 800] ------- [5:255 6:255 32 6] [ sh:2 , s: 5 , seq: 3 , p: 4 , n: 6 , d: 6 , l: 27 ] 
r 9.645497331 _6_ RTR  --- 9 sr 1547 [13a 6 4 800] ------- [5:255 6:255 32 6] [ sh:2 , s: 5 , seq: 3 , p: 4 , n: 6 , d: 6 , l: 27 ] 
f 9.653974306 _1_ RTR  --- 10 sr 1547 [13a 1 2 800] ------- [5:255 6:255 32 4] [ sh:2 , s: 5 , seq: 4 , p: 1 , n: 4 , d: 6 , l: 27 ] 
r 9.667832650 _4_ RTR  --- 10 sr 1547 [13a 4 1 800] ------- [5:255 6:255 32 4] [ sh:2 , s: 5 , seq: 4 , p: 1 , n: 4 , d: 6 , l: 27 ] 
s 9.734570035 _5_ RTR  --- 11 sr 1547 [0 0 0 0] ------- [5:255 6:255 32 2] [ sh:2 , s: 5 , seq: 5 , p: 5 , n: 2 , d: 6 , l: 27 ] 
r 9.748587802 _2_ RTR  --- 11 sr 1547 [13a 2 5 800] ------- [5:255 6:255 32 2] [ sh:2 , s: 5 , seq: 5 , p: 5 , n: 2 , d: 6 , l: 27 ] 
f 9.844953626 _3_ RTR  --- 11 sr 1547 [13a 3 5 800] ------- [5:255 6:255 32 2] [ sh:2 , s: 5 , seq: 5 , p: 3 , n: 2 , d: 6 , l: 27 ] 
r 9.858590946 _2_ RTR  --- 11 sr 1547 [13a 2 3 800] ------- [5:255 6:255 32 2] [ sh:2 , s: 5 , seq: 5 , p: 3 , n: 2 , d: 6 , l: 27 ] 
s 9.949164079 _5_ RTR  --- 11 sr 1547 [0 0 0 0] ------- [5:255 6:255 32 2] [ sh:2 , s: 5 , seq: 5 , p: 5 , n: 2 , d: 6 , l: 27 ] 
r 9.963161845 _2_ RTR  --- 11 sr 1547 [13a 2 5 800] ------- [5:255 6:255 32 2] [ sh:2 , s: 5 , seq: 5 , p: 5 , n: 2 , d: 6 , l: 27 ] 
M 10.00000 4 (140.84, 254.84, 0.00), (100.15, 150.29), 8.66
M 10.00000 5 (486.96, 50.88, 0.00), (475.15, 80.29), 5.66
M 10.00000 6 (100.66, 450.29, 0.00), (430.15, 170.29), 10.37
P 10.000000 _0_ Routing Table
P	dest 	next 	elapsed 	encounter 	expire
P	4	4	0.221887	0.221887	30.221887
P	6	6	0.157961	0.157961	30.157961
P 10.000000 _1_ Routing Table
P	dest 	next 	elapsed 	encounter 	expire
P	0	4	0.221887	0.221887	30.221887
P	2	2	0.008403	0.008403	30.008403
P	4	4	0.221887	0.221887	30.221887
P	6	4	0.221887	0.221887	30.221887
P 10.000000 _2_ Routing Table
P	dest 	next 	elapsed 	encounter 	expire
P	0	1	0.279041	0.279041	30.279041
P	1	1	0.279041	0.279041	30.279041
P	3	3	0.045242	0.045242	30.045242
P	4	1	0.279041	0.279041	30.279041
P	5	5	0.400858	0.400858	30.400858
P	6	1	0.279041	0.279041	30.279041
P 10.000000 _3_ Routing Table
P	dest 	next 	elapsed 	encounter 	expire
P	2	2	0.008403	0.008403	30.008403
P	5	5	0.400858	0.400858	30.400858
P 10.000000 _4_ Routing Table
P	dest 	next 	elapsed 	encounter 	expire
P	0	0	0.001310	0.001310	30.001310
P	1	1	0.279041	0.279041	30.279041
P	2	1	0.279041	0.279041	30.279041
P	6	6	0.157962	0.157962	30.157962
P 10.000000 _5_ Routing Table
P	dest 	next 	elapsed 	encounter 	expire
P	2	2	0.008403	0.008403	30.008403
P	3	3	0.045242	0.045242	30.045242
P 10.000000 _6_ Routing Table
P	dest 	next 	elapsed 	encounter 	expire
P	0	0	0.001310	0.001310	30.001310
P	4	4	0.221887	0.221887	30.221887
s 10.000000000 _5_ AGT  --- 19 cbr 300 [0 0 0 0] ------- [5:0 6:0 32 0] [5] 0 0
r 10.000000000 _5_ RTR  --- 19 cbr 300 [0 0 0 0] ------- [5:0 6:0 32 0] [5] 0 0
r 10.000000000 _6_ RTR  --- 9 sr 1547 [13a 6 4 800] ------- [5:255 6:255 32 6] [ sh:2 , s: 5 , seq: 3 , p: 4 , n: 6 , d: 6 , l: 27 ] 
s 10.027678341 _5_ RTR  --- 17 sr 47 [0 0 0 0] ------- [5:255 -1:255 1 0] [ sh:1 , s: 5 , seq: 0 , p: 5 , n: -1 , d: -1 , l: 27 ] 
r 10.029098866 _3_ RTR  --- 17 sr 47 [0 ffffffff 5 800] ------- [5:255 -1:255 1 0] [ sh:1 , s: 5 , seq: 0 , p: 5 , n: -1 , d: -1 , l: 27 ] 
r 10.029098930 _2_ RTR  --- 17 sr 47 [0 ffffffff 5 800] ------- [5:255 -1:255 1 0] [ sh:1 , s: 5 , seq: 0 , p: 5 , n: -1 , d: -1 , l: 27 ] 
s 10.065203037 _4_ RTR  --- 16 sr 47 [0 0 0 0] ------- [4:255 -1:255 1 0] [ sh:1 , s: 4 , seq: 0 , p: 4 , n: -1 , d: -1 , l: 27 ] 
r 10.066343325 _0_ RTR  --- 16 sr 47 [0 ffffffff 4 800] ------- [4:255 -1:255 1 0] [ sh:1 , s: 4 , seq: 0 , p: 4 , n: -1 , d: -1 , l: 27 ] 
r 10.066343702 _6_ RTR  --- 16 sr 47 [0 ffffffff 4 800] ------- [4:255 -1:255 1 0] [ sh:1 , s: 4 , seq: 0 , p: 4 , n: -1 , d: -1 , l: 27 ] 
r 10.066343820 _1_ RTR  --- 16 sr 47 [0 ffffffff 4 800] ------- [4:255 -1:255 1 0] [ sh:1 , s: 4 , seq: 0 , p: 4 , n: -1 , d: -1 , l: 27 ] 
s 10.074849691 _1_ RTR  --- 13 sr 47 [0 0 0 0] ------- [1:255 -1:255 1 0] [ sh:1 , s: 1 , seq: 0 , p: 1 , n: -1 , d: -1 , l: 27 ] 
r 10.076390190 _2_ RTR  --- 13 sr 47 [0 ffffffff 1 800] ------- [1:255 -1:255 1 0] [ sh:1 , s: 1 , seq: 0 , p: 1 , n: -1 , d: -1 , l: 27 ] 