n -t * -s 0  -x 33.364418416244 -y 370.43800983126101 -Z 0 -z 20  -v circle -c black
n -t * -s 1  -x 357.04629832315698 -y 345.35773177920402 -Z 0 -z 20  -v circle -c black
n -t * -s 2  -x 391.256560093833 -y 199.37330681680399 -Z 0 -z 20  -v circle -c black
n -t * -s 3  -x 332.32745165222201 -y 81.202292764557995 -Z 0 -z 20  -v circle -c black
n -t * -s 4  -x 140.839231807235 -y 254.84192533652401 -Z 0 -z 20  -v circle -c black
n -t * -s 5  -x 486.95808946333102 -y 50.882076250908 -Z 0 -z 20  -v circle -c black
n -t * -s 6  -x 100.663708107313 -y 450.28554083892499 -Z 0 -z 20  -v circle -c black
V -t * -v 1.0a5 -a 0
W -t * -x 500 -y 500
A -t * -n 1 -p 0 -o 0xffffffff -c 31 -a 1
A -t * -h 1 -m 2147483647 -s 0
+ -t 0.000169789 -s 0 -d -1 -p sr -e 47 -c 2 -a 0 -i 0 -k RTR 
- -t 0.000169789 -s 0 -d -1 -p sr -e 47 -c 2 -a 0 -i 0 -k RTR
h -t 0.000169789 -s 0 -d -1 -p sr -e 47 -c 2 -a 0 -i 0 -k RTR
r -t 0.001310137 -s 6 -d -1 -p sr -e 47 -c 2 -a 0 -i 0 -k RTR
r -t 0.001310315 -s 4 -d -1 -p sr -e 47 -c 2 -a 0 -i 0 -k RTR
+ -t 0.007102330 -s 2 -d -1 -p sr -e 47 -c 2 -a 0 -i 2 -k RTR 
- -t 0.007102330 -s 2 -d -1 -p sr -e 47 -c 2 -a 0 -i 2 -k RTR
h -t 0.007102330 -s 2 -d -1 -p sr -e 47 -c 2 -a 0 -i 2 -k RTR
r -t 0.008402770 -s 3 -d -1 -p sr -e 47 -c 2 -a 0 -i 2 -k RTR
r -t 0.008402830 -s 1 -d -1 -p sr -e 47 -c 2 -a 0 -i 2 -k RTR
r -t 0.008402919 -s 5 -d -1 -p sr -e 47 -c 2 -a 0 -i 2 -k RTR
+ -t 0.044061336 -s 3 -d -1 -p sr -e 47 -c 2 -a 0 -i 3 -k RTR 
- -t 0.044061336 -s 3 -d -1 -p sr -e 47 -c 2 -a 0 -i 3 -k RTR
h -t 0.044061336 -s 3 -d -1 -p sr -e 47 -c 2 -a 0 -i 3 -k RTR
r -t 0.045241776 -s 2 -d -1 -p sr -e 47 -c 2 -a 0 -i 3 -k RTR
r -t 0.045241861 -s 5 -d -1 -p sr -e 47 -c 2 -a 0 -i 3 -k RTR
+ -t 0.156480886 -s 6 -d -1 -p sr -e 47 -c 2 -a 0 -i 6 -k RTR 
- -t 0.156480886 -s 6 -d -1 -p sr -e 47 -c 2 -a 0 -i 6 -k RTR
h -t 0.156480886 -s 6 -d -1 -p sr -e 47 -c 2 -a 0 -i 6 -k RTR
r -t 0.157961234 -s 0 -d -1 -p sr -e 47 -c 2 -a 0 -i 6 -k RTR
r -t 0.157961551 -s 4 -d -1 -p sr -e 47 -c 2 -a 0 -i 6 -k RTR
+ -t 0.220586691 -s 4 -d -1 -p sr -e 47 -c 2 -a 0 -i 4 -k RTR 
- -t 0.220586691 -s 4 -d -1 -p sr -e 47 -c 2 -a 0 -i 4 -k RTR
h -t 0.220586691 -s 4 -d -1 -p sr -e 47 -c 2 -a 0 -i 4 -k RTR
r -t 0.221887217 -s 0 -d -1 -p sr -e 47 -c 2 -a 0 -i 4 -k RTR
r -t 0.221887356 -s 6 -d -1 -p sr -e 47 -c 2 -a 0 -i 4 -k RTR
r -t 0.221887472 -s 1 -d -1 -p sr -e 47 -c 2 -a 0 -i 4 -k RTR
+ -t 0.277940358 -s 1 -d -1 -p sr -e 47 -c 2 -a 0 -i 1 -k RTR 
- -t 0.277940358 -s 1 -d -1 -p sr -e 47 -c 2 -a 0 -i 1 -k RTR
h -t 0.277940358 -s 1 -d -1 -p sr -e 47 -c 2 -a 0 -i 1 -k RTR
r -t 0.279040858 -s 2 -d -1 -p sr -e 47 -c 2 -a 0 -i 1 -k RTR
r -t 0.279041139 -s 4 -d -1 -p sr -e 47 -c 2 -a 0 -i 1 -k RTR
+ -t 0.399577727 -s 5 -d -1 -p sr -e 47 -c 2 -a 0 -i 5 -k RTR 
- -t 0.399577727 -s 5 -d -1 -p sr -e 47 -c 2 -a 0 -i 5 -k RTR
h -t 0.399577727 -s 5 -d -1 -p sr -e 47 -c 2 -a 0 -i 5 -k RTR
r -t 0.400858252 -s 3 -d -1 -p sr -e 47 -c 2 -a 0 -i 5 -k RTR
r -t 0.400858316 -s 2 -d -1 -p sr -e 47 -c 2 -a 0 -i 5 -k RTR
n -t 5.000000 -s 0 -x 33.364418 -y 370.438010 -U 7.059150 -V -13.409215 -T 7.975364
+ -t 5.000000000 -s 5 -d -1 -p cbr -e 300 -c 2 -a 0 -i 7 -k AGT 
- -t 5.000000000 -s 5 -d -1 -p cbr -e 300 -c 2 -a 0 -i 7 -k AGT
h -t 5.000000000 -s 5 -d -1 -p cbr -e 300 -c 2 -a 0 -i 7 -k AGT
+ -t 5.129043974 -s 5 -d 3 -p sr -e 1547 -c 2 -a 0 -i 7 -k RTR 
- -t 5.129043974 -s 5 -d 3 -p sr -e 1547 -c 2 -a 0 -i 7 -k RTR
h -t 5.129043974 -s 5 -d 3 -p sr -e 1547 -c 2 -a 0 -i 7 -k RTR
+ -t 5.174370513 -s 5 -d 3 -p sr -e 1547 -c 2 -a 0 -i 7 -k RTR 
- -t 5.174370513 -s 5 -d 3 -p sr -e 1547 -c 2 -a 0 -i 7 -k RTR
h -t 5.174370513 -s 5 -d 3 -p sr -e 1547 -c 2 -a 0 -i 7 -k RTR
+ -t 5.204342838 -s 5 -d 3 -p sr -e 1547 -c 2 -a 0 -i 7 -k RTR 
- -t 5.204342838 -s 5 -d 3 -p sr -e 1547 -c 2 -a 0 -i 7 -k RTR
h -t 5.204342838 -s 5 -d 3 -p sr -e 1547 -c 2 -a 0 -i 7 -k RTR
+ -t 5.259324397 -s 5 -d 3 -p sr -e 1547 -c 2 -a 0 -i 7 -k RTR 
- -t 5.259324397 -s 5 -d 3 -p sr -e 1547 -c 2 -a 0 -i 7 -k RTR
h -t 5.259324397 -s 5 -d 3 -p sr -e 1547 -c 2 -a 0 -i 7 -k RTR
+ -t 5.593682621 -s 3 -d 2 -p sr -e 1547 -c 2 -a 0 -i 7 -k RTR 
- -t 5.593682621 -s 3 -d 2 -p sr -e 1547 -c 2 -a 0 -i 7 -k RTR
h -t 5.593682621 -s 3 -d 2 -p sr -e 1547 -c 2 -a 0 -i 7 -k RTR
+ -t 5.702103764 -s 3 -d 2 -p sr -e 1547 -c 2 -a 0 -i 7 -k RTR 
- -t 5.702103764 -s 3 -d 2 -p sr -e 1547 -c 2 -a 0 -i 7 -k RTR
h -t 5.702103764 -s 3 -d 2 -p sr -e 1547 -c 2 -a 0 -i 7 -k RTR
+ -t 5.943721773 -s 5 -d 2 -p sr -e 1547 -c 2 -a 0 -i 7 -k RTR 
- -t 5.943721773 -s 5 -d 2 -p sr -e 1547 -c 2 -a 0 -i 7 -k RTR
h -t 5.943721773 -s 5 -d 2 -p sr -e 1547 -c 2 -a 0 -i 7 -k RTR
+ -t 5.973132477 -s 5 -d 2 -p sr -e 1547 -c 2 -a 0 -i 7 -k RTR 
- -t 5.973132477 -s 5 -d 2 -p sr -e 1547 -c 2 -a 0 -i 7 -k RTR
h -t 5.973132477 -s 5 -d 2 -p sr -e 1547 -c 2 -a 0 -i 7 -k RTR
+ -t 6.000000000 -s 5 -d -1 -p cbr -e 300 -c 2 -a 0 -i 8 -k AGT 
- -t 6.000000000 -s 5 -d -1 -p cbr -e 300 -c 2 -a 0 -i 8 -k AGT
h -t 6.000000000 -s 5 -d -1 -p cbr -e 300 -c 2 -a 0 -i 8 -k AGT
+ -t 6.013778736 -s 2 -d 1 -p sr -e 1547 -c 2 -a 0 -i 7 -k RTR 
- -t 6.013778736 -s 2 -d 1 -p sr -e 1547 -c 2 -a 0 -i 7 -k RTR
h -t 6.013778736 -s 2 -d 1 -p sr -e 1547 -c 2 -a 0 -i 7 -k RTR
+ -t 6.093107127 -s 5 -d 3 -p sr -e 1547 -c 2 -a 0 -i 8 -k RTR 
- -t 6.093107127 -s 5 -d 3 -p sr -e 1547 -c 2 -a 0 -i 8 -k RTR
h -t 6.093107127 -s 5 -d 3 -p sr -e 1547 -c 2 -a 0 -i 8 -k RTR
+ -t 6.163658500 -s 2 -d 1 -p sr -e 1547 -c 2 -a 0 -i 7 -k RTR 
- -t 6.163658500 -s 2 -d 1 -p sr -e 1547 -c 2 -a 0 -i 7 -k RTR
h -t 6.163658500 -s 2 -d 1 -p sr -e 1547 -c 2 -a 0 -i 7 -k RTR
+ -t 6.386347869 -s 5 -d 3 -p sr -e 1547 -c 2 -a 0 -i 8 -k RTR 
- -t 6.386347869 -s 5 -d 3 -p sr -e 1547 -c 2 -a 0 -i 8 -k RTR
h -t 6.386347869 -s 5 -d 3 -p sr -e 1547 -c 2 -a 0 -i 8 -k RTR
+ -t 6.392493551 -s 5 -d 3 -p sr -e 1547 -c 2 -a 0 -i 8 -k RTR 
- -t 6.392493551 -s 5 -d 3 -p sr -e 1547 -c 2 -a 0 -i 8 -k RTR
h -t 6.392493551 -s 5 -d 3 -p sr -e 1547 -c 2 -a 0 -i 8 -k RTR
+ -t 6.473408095 -s 5 -d 3 -p sr -e 1547 -c 2 -a 0 -i 8 -k RTR 
- -t 6.473408095 -s 5 -d 3 -p sr -e 1547 -c 2 -a 0 -i 8 -k RTR
h -t 6.473408095 -s 5 -d 3 -p sr -e 1547 -c 2 -a 0 -i 8 -k RTR
+ -t 6.793056240 -s 3 -d 2 -p sr -e 1547 -c 2 -a 0 -i 8 -k RTR 
- -t 6.793056240 -s 3 -d 2 -p sr -e 1547 -c 2 -a 0 -i 8 -k RTR
h -t 6.793056240 -s 3 -d 2 -p sr -e 1547 -c 2 -a 0 -i 8 -k RTR
+ -t 6.864020886 -s 1 -d 4 -p sr -e 1547 -c 2 -a 0 -i 7 -k RTR 
- -t 6.864020886 -s 1 -d 4 -p sr -e 1547 -c 2 -a 0 -i 7 -k RTR
h -t 6.864020886 -s 1 -d 4 -p sr -e 1547 -c 2 -a 0 -i 7 -k RTR
+ -t 6.867920265 -s 5 -d 2 -p sr -e 1547 -c 2 -a 0 -i 8 -k RTR 
- -t 6.867920265 -s 5 -d 2 -p sr -e 1547 -c 2 -a 0 -i 8 -k RTR
h -t 6.867920265 -s 5 -d 2 -p sr -e 1547 -c 2 -a 0 -i 8 -k RTR
+ -t 6.901005931 -s 5 -d 2 -p sr -e 1547 -c 2 -a 0 -i 8 -k RTR 
- -t 6.901005931 -s 5 -d 2 -p sr -e 1547 -c 2 -a 0 -i 8 -k RTR
h -t 6.901005931 -s 5 -d 2 -p sr -e 1547 -c 2 -a 0 -i 8 -k RTR
+ -t 6.937323152 -s 3 -d 2 -p sr -e 1547 -c 2 -a 0 -i 8 -k RTR 
- -t 6.937323152 -s 3 -d 2 -p sr -e 1547 -c 2 -a 0 -i 8 -k RTR
h -t 6.937323152 -s 3 -d 2 -p sr -e 1547 -c 2 -a 0 -i 8 -k RTR
+ -t 7.000000000 -s 5 -d -1 -p cbr -e 300 -c 2 -a 0 -i 9 -k AGT 
- -t 7.000000000 -s 5 -d -1 -p cbr -e 300 -c 2 -a 0 -i 9 -k AGT
h -t 7.000000000 -s 5 -d -1 -p cbr -e 300 -c 2 -a 0 -i 9 -k AGT
+ -t 7.001675134 -s 5 -d 3 -p sr -e 1547 -c 2 -a 0 -i 9 -k RTR 
- -t 7.001675134 -s 5 -d 3 -p sr -e 1547 -c 2 -a 0 -i 9 -k RTR
h -t 7.001675134 -s 5 -d 3 -p sr -e 1547 -c 2 -a 0 -i 9 -k RTR
+ -t 7.016396178 -s 2 -d 1 -p sr -e 1547 -c 2 -a 0 -i 8 -k RTR 
- -t 7.016396178 -s 2 -d 1 -p sr -e 1547 -c 2 -a 0 -i 8 -k RTR
h -t 7.016396178 -s 2 -d 1 -p sr -e 1547 -c 2 -a 0 -i 8 -k RTR
+ -t 7.152494486 -s 4 -d 6 -p sr -e 1547 -c 2 -a 0 -i 7 -k RTR 
- -t 7.152494486 -s 4 -d 6 -p sr -e 1547 -c 2 -a 0 -i 7 -k RTR
h -t 7.152494486 -s 4 -d 6 -p sr -e 1547 -c 2 -a 0 -i 7 -k RTR
+ -t 7.160867407 -s 5 -d 3 -p sr -e 1547 -c 2 -a 0 -i 9 -k RTR 
- -t 7.160867407 -s 5 -d 3 -p sr -e 1547 -c 2 -a 0 -i 9 -k RTR
h -t 7.160867407 -s 5 -d 3 -p sr -e 1547 -c 2 -a 0 -i 9 -k RTR
+ -t 7.182623662 -s 2 -d 1 -p sr -e 1547 -c 2 -a 0 -i 8 -k RTR 
- -t 7.182623662 -s 2 -d 1 -p sr -e 1547 -c 2 -a 0 -i 8 -k RTR
h -t 7.182623662 -s 2 -d 1 -p sr -e 1547 -c 2 -a 0 -i 8 -k RTR
+ -t 7.439997816 -s 5 -d 3 -p sr -e 1547 -c 2 -a 0 -i 9 -k RTR 
- -t 7.439997816 -s 5 -d 3 -p sr -e 1547 -c 2 -a 0 -i 9 -k RTR
h -t 7.439997816 -s 5 -d 3 -p sr -e 1547 -c 2 -a 0 -i 9 -k RTR
+ -t 7.440628739 -s 5 -d 3 -p sr -e 1547 -c 2 -a 0 -i 9 -k RTR 
- -t 7.440628739 -s 5 -d 3 -p sr -e 1547 -c 2 -a 0 -i 9 -k RTR
h -t 7.440628739 -s 5 -d 3 -p sr -e 1547 -c 2 -a 0 -i 9 -k RTR
+ -t 7.455969601 -s 1 -d 4 -p sr -e 1547 -c 2 -a 0 -i 7 -k RTR 
- -t 7.455969601 -s 1 -d 4 -p sr -e 1547 -c 2 -a 0 -i 7 -k RTR
h -t 7.455969601 -s 1 -d 4 -p sr -e 1547 -c 2 -a 0 -i 7 -k RTR
+ -t 7.579256859 -s 5 -d 2 -p sr -e 1547 -c 2 -a 0 -i 9 -k RTR 
- -t 7.579256859 -s 5 -d 2 -p sr -e 1547 -c 2 -a 0 -i 9 -k RTR
h -t 7.579256859 -s 5 -d 2 -p sr -e 1547 -c 2 -a 0 -i 9 -k RTR
+ -t 7.742387047 -s 3 -d 2 -p sr -e 1547 -c 2 -a 0 -i 9 -k RTR 
- -t 7.742387047 -s 3 -d 2 -p sr -e 1547 -c 2 -a 0 -i 9 -k RTR
h -t 7.742387047 -s 3 -d 2 -p sr -e 1547 -c 2 -a 0 -i 9 -k RTR
+ -t 7.811444942 -s 4 -d 6 -p sr -e 1547 -c 2 -a 0 -i 7 -k RTR 
- -t 7.811444942 -s 4 -d 6 -p sr -e 1547 -c 2 -a 0 -i 7 -k RTR
h -t 7.811444942 -s 4 -d 6 -p sr -e 1547 -c 2 -a 0 -i 7 -k RTR
+ -t 7.867826762 -s 1 -d 4 -p sr -e 1547 -c 2 -a 0 -i 8 -k RTR 
- -t 7.867826762 -s 1 -d 4 -p sr -e 1547 -c 2 -a 0 -i 8 -k RTR
h -t 7.867826762 -s 1 -d 4 -p sr -e 1547 -c 2 -a 0 -i 8 -k RTR
+ -t 7.925391400 -s 5 -d 2 -p sr -e 1547 -c 2 -a 0 -i 9 -k RTR 
- -t 7.925391400 -s 5 -d 2 -p sr -e 1547 -c 2 -a 0 -i 9 -k RTR
h -t 7.925391400 -s 5 -d 2 -p sr -e 1547 -c 2 -a 0 -i 9 -k RTR
+ -t 7.948400432 -s 3 -d 2 -p sr -e 1547 -c 2 -a 0 -i 9 -k RTR 
- -t 7.948400432 -s 3 -d 2 -p sr -e 1547 -c 2 -a 0 -i 9 -k RTR
h -t 7.948400432 -s 3 -d 2 -p sr -e 1547 -c 2 -a 0 -i 9 -k RTR
+ -t 8.000000000 -s 5 -d -1 -p cbr -e 300 -c 2 -a 0 -i 10 -k AGT 
- -t 8.000000000 -s 5 -d -1 -p cbr -e 300 -c 2 -a 0 -i 10 -k AGT
h -t 8.000000000 -s 5 -d -1 -p cbr -e 300 -c 2 -a 0 -i 10 -k AGT
+ -t 8.114488436 -s 2 -d 1 -p sr -e 1547 -c 2 -a 0 -i 9 -k RTR 
- -t 8.114488436 -s 2 -d 1 -p sr -e 1547 -c 2 -a 0 -i 9 -k RTR
h -t 8.114488436 -s 2 -d 1 -p sr -e 1547 -c 2 -a 0 -i 9 -k RTR
+ -t 8.216705149 -s 2 -d 1 -p sr -e 1547 -c 2 -a 0 -i 9 -k RTR 
- -t 8.216705149 -s 2 -d 1 -p sr -e 1547 -c 2 -a 0 -i 9 -k RTR
h -t 8.216705149 -s 2 -d 1 -p sr -e 1547 -c 2 -a 0 -i 9 -k RTR
+ -t 8.220921546 -s 4 -d 6 -p sr -e 1547 -c 2 -a 0 -i 8 -k RTR 
- -t 8.220921546 -s 4 -d 6 -p sr -e 1547 -c 2 -a 0 -i 8 -k RTR
h -t 8.220921546 -s 4 -d 6 -p sr -e 1547 -c 2 -a 0 -i 8 -k RTR
+ -t 8.229986870 -s 5 -d 3 -p sr -e 1547 -c 2 -a 0 -i 10 -k RTR 
- -t 8.229986870 -s 5 -d 3 -p sr -e 1547 -c 2 -a 0 -i 10 -k RTR
h -t 8.229986870 -s 5 -d 3 -p sr -e 1547 -c 2 -a 0 -i 10 -k RTR
+ -t 8.318539716 -s 1 -d 4 -p sr -e 1547 -c 2 -a 0 -i 8 -k RTR 
- -t 8.318539716 -s 1 -d 4 -p sr -e 1547 -c 2 -a 0 -i 8 -k RTR
h -t 8.318539716 -s 1 -d 4 -p sr -e 1547 -c 2 -a 0 -i 8 -k RTR
+ -t 8.450719072 -s 5 -d 3 -p sr -e 1547 -c 2 -a 0 -i 10 -k RTR 
- -t 8.450719072 -s 5 -d 3 -p sr -e 1547 -c 2 -a 0 -i 10 -k RTR
h -t 8.450719072 -s 5 -d 3 -p sr -e 1547 -c 2 -a 0 -i 10 -k RTR
+ -t 8.469959430 -s 5 -d 3 -p sr -e 1547 -c 2 -a 0 -i 10 -k RTR 
- -t 8.469959430 -s 5 -d 3 -p sr -e 1547 -c 2 -a 0 -i 10 -k RTR
h -t 8.469959430 -s 5 -d 3 -p sr -e 1547 -c 2 -a 0 -i 10 -k RTR
+ -t 8.478859763 -s 5 -d 3 -p sr -e 1547 -c 2 -a 0 -i 10 -k RTR 
- -t 8.478859763 -s 5 -d 3 -p sr -e 1547 -c 2 -a 0 -i 10 -k RTR
h -t 8.478859763 -s 5 -d 3 -p sr -e 1547 -c 2 -a 0 -i 10 -k RTR
+ -t 8.580927960 -s 3 -d 2 -p sr -e 1547 -c 2 -a 0 -i 10 -k RTR 
- -t 8.580927960 -s 3 -d 2 -p sr -e 1547 -c 2 -a 0 -i 10 -k RTR
h -t 8.580927960 -s 3 -d 2 -p sr -e 1547 -c 2 -a 0 -i 10 -k RTR
+ -t 8.632374195 -s 3 -d 2 -p sr -e 1547 -c 2 -a 0 -i 10 -k RTR 
- -t 8.632374195 -s 3 -d 2 -p sr -e 1547 -c 2 -a 0 -i 10 -k RTR
h -t 8.632374195 -s 3 -d 2 -p sr -e 1547 -c 2 -a 0 -i 10 -k RTR
+ -t 8.689318655 -s 4 -d 6 -p sr -e 1547 -c 2 -a 0 -i 8 -k RTR 
- -t 8.689318655 -s 4 -d 6 -p sr -e 1547 -c 2 -a 0 -i 8 -k RTR
h -t 8.689318655 -s 4 -d 6 -p sr -e 1547 -c 2 -a 0 -i 8 -k RTR
+ -t 8.805864089 -s 5 -d 2 -p sr -e 1547 -c 2 -a 0 -i 10 -k RTR 
- -t 8.805864089 -s 5 -d 2 -p sr -e 1547 -c 2 -a 0 -i 10 -k RTR
h -t 8.805864089 -s 5 -d 2 -p sr -e 1547 -c 2 -a 0 -i 10 -k RTR
+ -t 8.827720838 -s 5 -d 2 -p sr -e 1547 -c 2 -a 0 -i 10 -k RTR 
- -t 8.827720838 -s 5 -d 2 -p sr -e 1547 -c 2 -a 0 -i 10 -k RTR
h -t 8.827720838 -s 5 -d 2 -p sr -e 1547 -c 2 -a 0 -i 10 -k RTR
+ -t 8.828628242 -s 1 -d 4 -p sr -e 1547 -c 2 -a 0 -i 9 -k RTR 
- -t 8.828628242 -s 1 -d 4 -p sr -e 1547 -c 2 -a 0 -i 9 -k RTR
h -t 8.828628242 -s 1 -d 4 -p sr -e 1547 -c 2 -a 0 -i 9 -k RTR
+ -t 9.000000000 -s 5 -d -1 -p cbr -e 300 -c 2 -a 0 -i 11 -k AGT 
- -t 9.000000000 -s 5 -d -1 -p cbr -e 300 -c 2 -a 0 -i 11 -k AGT
h -t 9.000000000 -s 5 -d -1 -p cbr -e 300 -c 2 -a 0 -i 11 -k AGT
+ -t 9.064920765 -s 5 -d 3 -p sr -e 1547 -c 2 -a 0 -i 11 -k RTR 
- -t 9.064920765 -s 5 -d 3 -p sr -e 1547 -c 2 -a 0 -i 11 -k RTR
h -t 9.064920765 -s 5 -d 3 -p sr -e 1547 -c 2 -a 0 -i 11 -k RTR
+ -t 9.196410329 -s 5 -d 3 -p sr -e 1547 -c 2 -a 0 -i 11 -k RTR 
- -t 9.196410329 -s 5 -d 3 -p sr -e 1547 -c 2 -a 0 -i 11 -k RTR
h -t 9.196410329 -s 5 -d 3 -p sr -e 1547 -c 2 -a 0 -i 11 -k RTR
+ -t 9.215180658 -s 2 -d 1 -p sr -e 1547 -c 2 -a 0 -i 10 -k RTR 
- -t 9.215180658 -s 2 -d 1 -p sr -e 1547 -c 2 -a 0 -i 10 -k RTR
h -t 9.215180658 -s 2 -d 1 -p sr -e 1547 -c 2 -a 0 -i 10 -k RTR
+ -t 9.271736159 -s 5 -d 3 -p sr -e 1547 -c 2 -a 0 -i 11 -k RTR 
- -t 9.271736159 -s 5 -d 3 -p sr -e 1547 -c 2 -a 0 -i 11 -k RTR
h -t 9.271736159 -s 5 -d 3 -p sr -e 1547 -c 2 -a 0 -i 11 -k RTR
+ -t 9.290116114 -s 5 -d 3 -p sr -e 1547 -c 2 -a 0 -i 11 -k RTR 
- -t 9.290116114 -s 5 -d 3 -p sr -e 1547 -c 2 -a 0 -i 11 -k RTR
h -t 9.290116114 -s 5 -d 3 -p sr -e 1547 -c 2 -a 0 -i 11 -k RTR
+ -t 9.354176035 -s 2 -d 1 -p sr -e 1547 -c 2 -a 0 -i 10 -k RTR 
- -t 9.354176035 -s 2 -d 1 -p sr -e 1547 -c 2 -a 0 -i 10 -k RTR
h -t 9.354176035 -s 2 -d 1 -p sr -e 1547 -c 2 -a 0 -i 10 -k RTR
+ -t 9.411105464 -s 1 -d 4 -p sr -e 1547 -c 2 -a 0 -i 9 -k RTR 
- -t 9.411105464 -s 1 -d 4 -p sr -e 1547 -c 2 -a 0 -i 9 -k RTR
h -t 9.411105464 -s 1 -d 4 -p sr -e 1547 -c 2 -a 0 -i 9 -k RTR
+ -t 9.415022701 -s 4 -d 6 -p sr -e 1547 -c 2 -a 0 -i 9 -k RTR 
- -t 9.415022701 -s 4 -d 6 -p sr -e 1547 -c 2 -a 0 -i 9 -k RTR
h -t 9.415022701 -s 4 -d 6 -p sr -e 1547 -c 2 -a 0 -i 9 -k RTR
+ -t 9.503967349 -s 3 -d 2 -p sr -e 1547 -c 2 -a 0 -i 11 -k RTR 
- -t 9.503967349 -s 3 -d 2 -p sr -e 1547 -c 2 -a 0 -i 11 -k RTR
h -t 9.503967349 -s 3 -d 2 -p sr -e 1547 -c 2 -a 0 -i 11 -k RTR
+ -t 9.631879336 -s 4 -d 6 -p sr -e 1547 -c 2 -a 0 -i 9 -k RTR 
- -t 9.631879336 -s 4 -d 6 -p sr -e 1547 -c 2 -a 0 -i 9 -k RTR
h -t 9.631879336 -s 4 -d 6 -p sr -e 1547 -c 2 -a 0 -i 9 -k RTR
+ -t 9.653974306 -s 1 -d 4 -p sr -e 1547 -c 2 -a 0 -i 10 -k RTR 
- -t 9.653974306 -s 1 -d 4 -p sr -e 1547 -c 2 -a 0 -i 10 -k RTR
h -t 9.653974306 -s 1 -d 4 -p sr -e 1547 -c 2 -a 0 -i 10 -k RTR
+ -t 9.734570035 -s 5 -d 2 -p sr -e 1547 -c 2 -a 0 -i 11 -k RTR 
- -t 9.734570035 -s 5 -d 2 -p sr -e 1547 -c 2 -a 0 -i 11 -k RTR
h -t 9.734570035 -s 5 -d 2 -p sr -e 1547 -c 2 -a 0 -i 11 -k RTR
+ -t 9.844953626 -s 3 -d 2 -p sr -e 1547 -c 2 -a 0 -i 11 -k RTR 
- -t 9.844953626 -s 3 -d 2 -p sr -e 1547 -c 2 -a 0 -i 11 -k RTR
h -t 9.844953626 -s 3 -d 2 -p sr -e 1547 -c 2 -a 0 -i 11 -k RTR
+ -t 9.949164079 -s 5 -d 2 -p sr -e 1547 -c 2 -a 0 -i 11 -k RTR 
- -t 9.949164079 -s 5 -d 2 -p sr -e 1547 -c 2 -a 0 -i 11 -k RTR
h -t 9.949164079 -s 5 -d 2 -p sr -e 1547 -c 2 -a 0 -i 11 -k RTR
n -t 10.000000 -s 4 -x 140.839232 -y 254.841925 -U -3.141778 -V -8.073975 -T 12.949803
n -t 10.000000 -s 5 -x 486.958089 -y 50.882076 -U -2.110053 -V 5.255974 -T 5.594294
n -t 10.000000 -s 6 -x 100.663708 -y 450.285541 -U 7.902717 -V -6.715712 -T 41.693273
+ -t 10.000000000 -s 5 -d -1 -p cbr -e 300 -c 2 -a 0 -i 19 -k AGT 
- -t 10.000000000 -s 5 -d -1 -p cbr -e 300 -c 2 -a 0 -i 19 -k AGT
h -t 10.000000000 -s 5 -d -1 -p cbr -e 300 -c 2 -a 0 -i 19 -k AGT
+ -t 10.027678341 -s 5 -d -1 -p sr -e 47 -c 2 -a 0 -i 17 -k RTR 
- -t 10.027678341 -s 5 -d -1 -p sr -e 47 -c 2 -a 0 -i 17 -k RTR
h -t 10.027678341 -s 5 -d -1 -p sr -e 47 -c 2 -a 0 -i 17 -k RTR
r -t 10.029098866 -s 3 -d -1 -p sr -e 47 -c 2 -a 0 -i 17 -k RTR
r -t 10.029098930 -s 2 -d -1 -p sr -e 47 -c 2 -a 0 -i 17 -k RTR
+ -t 10.065203037 -s 4 -d -1 -p sr -e 47 -c 2 -a 0 -i 16 -k RTR 
- -t 10.065203037 -s 4 -d -1 -p sr -e 47 -c 2 -a 0 -i 16 -k RTR
h -t 10.065203037 -s 4 -d -1 -p sr -e 47 -c 2 -a 0 -i 16 -k RTR
r -t 10.066343325 -s 0 -d -1 -p sr -e 47 -c 2 -a 0 -i 16 -k RTR
r -t 10.066343702 -s 6 -d -1 -p sr -e 47 -c 2 -a 0 -i 16 -k RTR
r -t 10.066343820 -s 1 -d -1 -p sr -e 47 -c 2 -a 0 -i 16 -k RTR
+ -t 10.074849691 -s 1 -d -1 -p sr -e 47 -c 2 -a 0 -i 13 -k RTR 
- -t 10.074849691 -s 1 -d -1 -p sr -e 47 -c 2 -a 0 -i 13 -k RTR
h -t 10.074849691 -s 1 -d -1 -p sr -e 47 -c 2 -a 0 -i 13 -k RTR
r -t 10.076390190 -s 2 -d -1 -p sr -e 47 -c 2 -a 0 -i 13 -k RTR
r -t 10.076390473 -s 4 -d -1 -p sr -e 47 -c 2 -a 0 -i 13 -k RTR
+ -t 10.152694524 -s 1 -d 4 -p sr -e 1547 -c 2 -a 0 -i 10 -k RTR 
- -t 10.152694524 -s 1 -d 4 -p sr -e 1547 -c 2 -a 0 -i 10 -k RTR
h -t 10.152694524 -s 1 -d 4 -p sr -e 1547 -c 2 -a 0 -i 10 -k RTR
+ -t 10.165327726 -s 2 -d 1 -p sr -e 1547 -c 2 -a 0 -i 11 -k RTR 
- -t 10.165327726 -s 2 -d 1 -p sr -e 1547 -c 2 -a 0 -i 11 -k RTR
h -t 10.165327726 -s 2 -d 1 -p sr -e 1547 -c 2 -a 0 -i 11 -k RTR
+ -t 10.186917907 -s 4 -d 6 -p sr -e 1547 -c 2 -a 0 -i 10 -k RTR 
- -t 10.186917907 -s 4 -d 6 -p sr -e 1547 -c 2 -a 0 -i 10 -k RTR
h -t 10.186917907 -s 4 -d 6 -p sr -e 1547 -c 2 -a 0 -i 10 -k RTR
+ -t 10.187616195 -s 2 -d 1 -p sr -e 1547 -c 2 -a 0 -i 11 -k RTR 
- -t 10.187616195 -s 2 -d 1 -p sr -e 1547 -c 2 -a 0 -i 11 -k RTR
h -t 10.187616195 -s 2 -d 1 -p sr -e 1547 -c 2 -a 0 -i 11 -k RTR
+ -t 10.213945713 -s 5 -d 3 -p sr -e 1547 -c 2 -a 0 -i 19 -k RTR 
- -t 10.213945713 -s 5 -d 3 -p sr -e 1547 -c 2 -a 0 -i 19 -k RTR
h -t 10.213945713 -s 5 -d 3 -p sr -e 1547 -c 2 -a 0 -i 19 -k RTR
+ -t 10.222370744 -s 2 -d -1 -p sr -e 47 -c 2 -a 0 -i 14 -k RTR 
- -t 10.222370744 -s 2 -d -1 -p sr -e 47 -c 2 -a 0 -i 14 -k RTR
h -t 10.222370744 -s 2 -d -1 -p sr -e 47 -c 2 -a 0 -i 14 -k RTR
r -t 10.231934191 -s 3 -d -1 -p sr -e 47 -c 2 -a 0 -i 14 -k RTR
r -t 10.231934251 -s 1 -d -1 -p sr -e 47 -c 2 -a 0 -i 14 -k RTR
r -t 10.231934336 -s 5 -d -1 -p sr -e 47 -c 2 -a 0 -i 14 -k RTR
+ -t 10.258195940 -s 6 -d -1 -p sr -e 47 -c 2 -a 0 -i 18 -k RTR 
- -t 10.258195940 -s 6 -d -1 -p sr -e 47 -c 2 -a 0 -i 18 -k RTR
h -t 10.258195940 -s 6 -d -1 -p sr -e 47 -c 2 -a 0 -i 18 -k RTR
r -t 10.259516447 -s 0 -d -1 -p sr -e 47 -c 2 -a 0 -i 18 -k RTR
r -t 10.259516605 -s 4 -d -1 -p sr -e 47 -c 2 -a 0 -i 18 -k RTR
+ -t 10.271789941 -s 5 -d 3 -p sr -e 1547 -c 2 -a 0 -i 19 -k RTR 
- -t 10.271789941 -s 5 -d 3 -p sr -e 1547 -c 2 -a 0 -i 19 -k RTR
h -t 10.271789941 -s 5 -d 3 -p sr -e 1547 -c 2 -a 0 -i 19 -k RTR
+ -t 10.315817781 -s 3 -d -1 -p sr -e 47 -c 2 -a 0 -i 15 -k RTR 
- -t 10.315817781 -s 3 -d -1 -p sr -e 47 -c 2 -a 0 -i 15 -k RTR
h -t 10.315817781 -s 3 -d -1 -p sr -e 47 -c 2 -a 0 -i 15 -k RTR
r -t 10.316878221 -s 2 -d -1 -p sr -e 47 -c 2 -a 0 -i 15 -k RTR
r -t 10.316878303 -s 5 -d -1 -p sr -e 47 -c 2 -a 0 -i 15 -k RTR
+ -t 10.323758410 -s 0 -d -1 -p sr -e 47 -c 2 -a 0 -i 12 -k RTR 
- -t 10.323758410 -s 0 -d -1 -p sr -e 47 -c 2 -a 0 -i 12 -k RTR
h -t 10.323758410 -s 0 -d -1 -p sr -e 47 -c 2 -a 0 -i 12 -k RTR
r -t 10.324838688 -s 4 -d -1 -p sr -e 47 -c 2 -a 0 -i 12 -k RTR
r -t 10.324838919 -s 6 -d -1 -p sr -e 47 -c 2 -a 0 -i 12 -k RTR
+ -t 10.388470893 -s 5 -d 3 -p sr -e 1547 -c 2 -a 0 -i 19 -k RTR 
- -t 10.388470893 -s 5 -d 3 -p sr -e 1547 -c 2 -a 0 -i 19 -k RTR
h -t 10.388470893 -s 5 -d 3 -p sr -e 1547 -c 2 -a 0 -i 19 -k RTR
+ -t 10.420648561 -s 5 -d 3 -p sr -e 1547 -c 2 -a 0 -i 19 -k RTR 
- -t 10.420648561 -s 5 -d 3 -p sr -e 1547 -c 2 -a 0 -i 19 -k RTR
h -t 10.420648561 -s 5 -d 3 -p sr -e 1547 -c 2 -a 0 -i 19 -k RTR
+ -t 10.517369285 -s 1 -d 4 -p sr -e 1547 -c 2 -a 0 -i 11 -k RTR 
- -t 10.517369285 -s 1 -d 4 -p sr -e 1547 -c 2 -a 0 -i 11 -k RTR
h -t 10.517369285 -s 1 -d 4 -p sr -e 1547 -c 2 -a 0 -i 11 -k RTR
+ -t 10.532800460 -s 3 -d 2 -p sr -e 1547 -c 2 -a 0 -i 19 -k RTR 
- -t 10.532800460 -s 3 -d 2 -p sr -e 1547 -c 2 -a 0 -i 19 -k RTR
h -t 10.532800460 -s 3 -d 2 -p sr -e 1547 -c 2 -a 0 -i 19 -k RTR
+ -t 10.540792939 -s 4 -d 6 -p sr -e 1547 -c 2 -a 0 -i 10 -k RTR 
- -t 10.540792939 -s 4 -d 6 -p sr -e 1547 -c 2 -a 0 -i 10 -k RTR
h -t 10.540792939 -s 4 -d 6 -p sr -e 1547 -c 2 -a 0 -i 10 -k RTR
+ -t 10.744667646 -s 5 -d 2 -p sr -e 1547 -c 2 -a 0 -i 19 -k RTR 
- -t 10.744667646 -s 5 -d 2 -p sr -e 1547 -c 2 -a 0 -i 19 -k RTR
h -t 10.744667646 -s 5 -d 2 -p sr -e 1547 -c 2 -a 0 -i 19 -k RTR
+ -t 10.746258285 -s 3 -d 2 -p sr -e 1547 -c 2 -a 0 -i 19 -k RTR 
- -t 10.746258285 -s 3 -d 2 -p sr -e 1547 -c 2 -a 0 -i 19 -k RTR
h -t 10.746258285 -s 3 -d 2 -p sr -e 1547 -c 2 -a 0 -i 19 -k RTR
+ -t 10.917924760 -s 5 -d 2 -p sr -e 1547 -c 2 -a 0 -i 19 -k RTR 
- -t 10.917924760 -s 5 -d 2 -p sr -e 1547 -c 2 -a 0 -i 19 -k RTR
h -t 10.917924760 -s 5 -d 2 -p sr -e 1547 -c 2 -a 0 -i 19 -k RTR
+ -t 11.000000000 -s 5 -d -1 -p cbr -e 300 -c 2 -a 0 -i 20 -k AGT 
- -t 11.000000000 -s 5 -d -1 -p cbr -e 300 -c 2 -a 0 -i 20 -k AGT
h -t 11.000000000 -s 5 -d -1 -p cbr -e 300 -c 2 -a 0 -i 20 -k AGT
+ -t 11.023724243 -s 5 -d 3 -p sr -e 1547 -c 2 -a 0 -i 20 -k RTR 
- -t 11.023724243 -s 5 -d 3 -p sr -e 1547 -c 2 -a 0 -i 20 -k RTR
h -t 11.023724243 -s 5 -d 3 -p sr -e 1547 -c 2 -a 0 -i 20 -k RTR
+ -t 11.038249125 -s 5 -d 3 -p sr -e 1547 -c 2 -a 0 -i 20 -k RTR 
- -t 11.038249125 -s 5 -d 3 -p sr -e 1547 -c 2 -a 0 -i 20 -k RTR
h -t 11.038249125 -s 5 -d 3 -p sr -e 1547 -c 2 -a 0 -i 20 -k RTR
+ -t 11.042524359 -s 2 -d 1 -p sr -e 1547 -c 2 -a 0 -i 19 -k RTR 
- -t 11.042524359 -s 2 -d 1 -p sr -e 1547 -c 2 -a 0 -i 19 -k RTR
h -t 11.042524359 -s 2 -d 1 -p sr -e 1547 -c 2 -a 0 -i 19 -k RTR
+ -t 11.049057790 -s 2 -d 1 -p sr -e 1547 -c 2 -a 0 -i 19 -k RTR 
- -t 11.049057790 -s 2 -d 1 -p sr -e 1547 -c 2 -a 0 -i 19 -k RTR
h -t 11.049057790 -s 2 -d 1 -p sr -e 1547 -c 2 -a 0 -i 19 -k RTR
+ -t 11.186121951 -s 1 -d 4 -p sr -e 1547 -c 2 -a 0 -i 11 -k RTR 
- -t 11.186121951 -s 1 -d 4 -p sr -e 1547 -c 2 -a 0 -i 11 -k RTR
h -t 11.186121951 -s 1 -d 4 -p sr -e 1547 -c 2 -a 0 -i 11 -k RTR
+ -t 11.221440986 -s 5 -d 3 -p sr -e 1547 -c 2 -a 0 -i 20 -k RTR 
- -t 11.221440986 -s 5 -d 3 -p sr -e 1547 -c 2 -a 0 -i 20 -k RTR
h -t 11.221440986 -s 5 -d 3 -p sr -e 1547 -c 2 -a 0 -i 20 -k RTR
+ -t 11.237858259 -s 4 -d 6 -p sr -e 1547 -c 2 -a 0 -i 11 -k RTR 
- -t 11.237858259 -s 4 -d 6 -p sr -e 1547 -c 2 -a 0 -i 11 -k RTR
h -t 11.237858259 -s 4 -d 6 -p sr -e 1547 -c 2 -a 0 -i 11 -k RTR
+ -t 11.242354872 -s 5 -d 3 -p sr -e 1547 -c 2 -a 0 -i 20 -k RTR 
- -t 11.242354872 -s 5 -d 3 -p sr -e 1547 -c 2 -a 0 -i 20 -k RTR
h -t 11.242354872 -s 5 -d 3 -p sr -e 1547 -c 2 -a 0 -i 20 -k RTR
+ -t 11.531704659 -s 5 -d 2 -p sr -e 1547 -c 2 -a 0 -i 20 -k RTR 
- -t 11.531704659 -s 5 -d 2 -p sr -e 1547 -c 2 -a 0 -i 20 -k RTR
h -t 11.531704659 -s 5 -d 2 -p sr -e 1547 -c 2 -a 0 -i 20 -k RTR
+ -t 11.542717868 -s 5 -d 2 -p sr -e 1547 -c 2 -a 0 -i 20 -k RTR 
- -t 11.542717868 -s 5 -d 2 -p sr -e 1547 -c 2 -a 0 -i 20 -k RTR
h -t 11.542717868 -s 5 -d 2 -p sr -e 1547 -c 2 -a 0 -i 20 -k RTR
+ -t 11.730255971 -s 4 -d 6 -p sr -e 1547 -c 2 -a 0 -i 11 -k RTR 
- -t 11.730255971 -s 4 -d 6 -p sr -e 1547 -c 2 -a 0 -i 11 -k RTR
h -t 11.730255971 -s 4 -d 6 -p sr -e 1547 -c 2 -a 0 -i 11 -k RTR
+ -t 11.933398404 -s 3 -d 2 -p sr -e 1547 -c 2 -a 0 -i 20 -k RTR 
- -t 11.933398404 -s 3 -d 2 -p sr -e 1547 -c 2 -a 0 -i 20 -k RTR
h -t 11.933398404 -s 3 -d 2 -p sr -e 1547 -c 2 -a 0 -i 20 -k RTR
+ -t 11.950322233 -s 3 -d 2 -p sr -e 1547 -c 2 -a 0 -i 20 -k RTR 
- -t 11.950322233 -s 3 -d 2 -p sr -e 1547 -c 2 -a 0 -i 20 -k RTR
h -t 11.950322233 -s 3 -d 2 -p sr -e 1547 -c 2 -a 0 -i 20 -k RTR
+ -t 11.951691100 -s 1 -d 4 -p sr -e 1547 -c 2 -a 0 -i 19 -k RTR 
- -t 11.951691100 -s 1 -d 4 -p sr -e 1547 -c 2 -a 0 -i 19 -k RTR
h -t 11.951691100 -s 1 -d 4 -p sr -e 1547 -c 2 -a 0 -i 19 -k RTR
+ -t 12.000000000 -s 5 -d -1 -p cbr -e 300 -c 2 -a 0 -i 21 -k AGT 
- -t 12.000000000 -s 5 -d -1 -p cbr -e 300 -c 2 -a 0 -i 21 -k AGT
h -t 12.000000000 -s 5 -d -1 -p cbr -e 300 -c 2 -a 0 -i 21 -k AGT
+ -t 12.064856197 -s 5 -d 3 -p sr -e 1547 -c 2 -a 0 -i 21 -k RTR 
- -t 12.064856197 -s 5 -d 3 -p sr -e 1547 -c 2 -a 0 -i 21 -k RTR
h -t 12.064856197 -s 5 -d 3 -p sr -e 1547 -c 2 -a 0 -i 21 -k RTR
+ -t 12.076106339 -s 2 -d 1 -p sr -e 1547 -c 2 -a 0 -i 20 -k RTR 
- -t 12.076106339 -s 2 -d 1 -p sr -e 1547 -c 2 -a 0 -i 20 -k RTR
h -t 12.076106339 -s 2 -d 1 -p sr -e 1547 -c 2 -a 0 -i 20 -k RTR
+ -t 12.077358434 -s 1 -d 4 -p sr -e 1547 -c 2 -a 0 -i 19 -k RTR 
- -t 12.077358434 -s 1 -d 4 -p sr -e 1547 -c 2 -a 0 -i 19 -k RTR
h -t 12.077358434 -s 1 -d 4 -p sr -e 1547 -c 2 -a 0 -i 19 -k RTR
+ -t 12.136587169 -s 4 -d 6 -p sr -e 1547 -c 2 -a 0 -i 19 -k RTR 
- -t 12.136587169 -s 4 -d 6 -p sr -e 1547 -c 2 -a 0 -i 19 -k RTR
h -t 12.136587169 -s 4 -d 6 -p sr -e 1547 -c 2 -a 0 -i 19 -k RTR
+ -t 12.138591123 -s 2 -d 1 -p sr -e 1547 -c 2 -a 0 -i 20 -k RTR 
- -t 12.138591123 -s 2 -d 1 -p sr -e 1547 -c 2 -a 0 -i 20 -k RTR
h -t 12.138591123 -s 2 -d 1 -p sr -e 1547 -c 2 -a 0 -i 20 -k RTR
+ -t 12.411058496 -s 5 -d 3 -p sr -e 1547 -c 2 -a 0 -i 21 -k RTR 
- -t 12.411058496 -s 5 -d 3 -p sr -e 1547 -c 2 -a 0 -i 21 -k RTR
h -t 12.411058496 -s 5 -d 3 -p sr -e 1547 -c 2 -a 0 -i 21 -k RTR
+ -t 12.418755871 -s 5 -d 3 -p sr -e 1547 -c 2 -a 0 -i 21 -k RTR 
- -t 12.418755871 -s 5 -d 3 -p sr -e 1547 -c 2 -a 0 -i 21 -k RTR
h -t 12.418755871 -s 5 -d 3 -p sr -e 1547 -c 2 -a 0 -i 21 -k RTR
+ -t 12.478790627 -s 5 -d 3 -p sr -e 1547 -c 2 -a 0 -i 21 -k RTR 
- -t 12.478790627 -s 5 -d 3 -p sr -e 1547 -c 2 -a 0 -i 21 -k RTR
h -t 12.478790627 -s 5 -d 3 -p sr -e 1547 -c 2 -a 0 -i 21 -k RTR
+ -t 12.553673521 -s 1 -d 4 -p sr -e 1547 -c 2 -a 0 -i 20 -k RTR 
- -t 12.553673521 -s 1 -d 4 -p sr -e 1547 -c 2 -a 0 -i 20 -k RTR
h -t 12.553673521 -s 1 -d 4 -p sr -e 1547 -c 2 -a 0 -i 20 -k RTR
+ -t 12.621626427 -s 4 -d 6 -p sr -e 1547 -c 2 -a 0 -i 19 -k RTR 
- -t 12.621626427 -s 4 -d 6 -p sr -e 1547 -c 2 -a 0 -i 19 -k RTR
h -t 12.621626427 -s 4 -d 6 -p sr -e 1547 -c 2 -a 0 -i 19 -k RTR
+ -t 12.676443233 -s 3 -d 2 -p sr -e 1547 -c 2 -a 0 -i 21 -k RTR 
- -t 12.676443233 -s 3 -d 2 -p sr -e 1547 -c 2 -a 0 -i 21 -k RTR
h -t 12.676443233 -s 3 -d 2 -p sr -e 1547 -c 2 -a 0 -i 21 -k RTR
+ -t 12.723064148 -s 5 -d 2 -p sr -e 1547 -c 2 -a 0 -i 21 -k RTR 
- -t 12.723064148 -s 5 -d 2 -p sr -e 1547 -c 2 -a 0 -i 21 -k RTR
h -t 12.723064148 -s 5 -d 2 -p sr -e 1547 -c 2 -a 0 -i 21 -k RTR
+ -t 12.787084306 -s 3 -d 2 -p sr -e 1547 -c 2 -a 0 -i 21 -k RTR 
- -t 12.787084306 -s 3 -d 2 -p sr -e 1547 -c 2 -a 0 -i 21 -k RTR
h -t 12.787084306 -s 3 -d 2 -p sr -e 1547 -c 2 -a 0 -i 21 -k RTR
+ -t 12.998426622 -s 5 -d 2 -p sr -e 1547 -c 2 -a 0 -i 21 -k RTR 
- -t 12.998426622 -s 5 -d 2 -p sr -e 1547 -c 2 -a 0 -i 21 -k RTR
h -t 12.998426622 -s 5 -d 2 -p sr -e 1547 -c 2 -a 0 -i 21 -k RTR
+ -t 13.000000000 -s 5 -d -1 -p cbr -e 300 -c 2 -a 0 -i 22 -k AGT 
- -t 13.000000000 -s 5 -d -1 -p cbr -e 300 -c 2 -a 0 -i 22 -k AGT
h -t 13.000000000 -s 5 -d -1 -p cbr -e 300 -c 2 -a 0 -i 22 -k AGT
+ -t 13.165961846 -s 5 -d 3 -p sr -e 1547 -c 2 -a 0 -i 22 -k RTR 
- -t 13.165961846 -s 5 -d 3 -p sr -e 1547 -c 2 -a 0 -i 22 -k RTR
h -t 13.165961846 -s 5 -d 3 -p sr -e 1547 -c 2 -a 0 -i 22 -k RTR
+ -t 13.185619488 -s 2 -d 1 -p sr -e 1547 -c 2 -a 0 -i 21 -k RTR 
- -t 13.185619488 -s 2 -d 1 -p sr -e 1547 -c 2 -a 0 -i 21 -k RTR
h -t 13.185619488 -s 2 -d 1 -p sr -e 1547 -c 2 -a 0 -i 21 -k RTR
+ -t 13.268467862 -s 1 -d 4 -p sr -e 1547 -c 2 -a 0 -i 20 -k RTR 
- -t 13.268467862 -s 1 -d 4 -p sr -e 1547 -c 2 -a 0 -i 20 -k RTR
h -t 13.268467862 -s 1 -d 4 -p sr -e 1547 -c 2 -a 0 -i 20 -k RTR
+ -t 13.302126285 -s 5 -d 3 -p sr -e 1547 -c 2 -a 0 -i 22 -k RTR 
- -t 13.302126285 -s 5 -d 3 -p sr -e 1547 -c 2 -a 0 -i 22 -k RTR
h -t 13.302126285 -s 5 -d 3 -p sr -e 1547 -c 2 -a 0 -i 22 -k RTR
+ -t 13.395963903 -s 5 -d 3 -p sr -e 1547 -c 2 -a 0 -i 22 -k RTR 
- -t 13.395963903 -s 5 -d 3 -p sr -e 1547 -c 2 -a 0 -i 22 -k RTR
h -t 13.395963903 -s 5 -d 3 -p sr -e 1547 -c 2 -a 0 -i 22 -k RTR
+ -t 13.493552042 -s 5 -d 3 -p sr -e 1547 -c 2 -a 0 -i 22 -k RTR 
- -t 13.493552042 -s 5 -d 3 -p sr -e 1547 -c 2 -a 0 -i 22 -k RTR
h -t 13.493552042 -s 5 -d 3 -p sr -e 1547 -c 2 -a 0 -i 22 -k RTR
+ -t 13.516290888 -s 5 -d 2 -p sr -e 1547 -c 2 -a 0 -i 22 -k RTR 
- -t 13.516290888 -s 5 -d 2 -p sr -e 1547 -c 2 -a 0 -i 22 -k RTR
h -t 13.516290888 -s 5 -d 2 -p sr -e 1547 -c 2 -a 0 -i 22 -k RTR
+ -t 13.544428145 -s 3 -d 2 -p sr -e 1547 -c 2 -a 0 -i 22 -k RTR 
- -t 13.544428145 -s 3 -d 2 -p sr -e 1547 -c 2 -a 0 -i 22 -k RTR
h -t 13.544428145 -s 3 -d 2 -p sr -e 1547 -c 2 -a 0 -i 22 -k RTR
+ -t 13.580816405 -s 1 -d 4 -p sr -e 1547 -c 2 -a 0 -i 21 -k RTR 
- -t 13.580816405 -s 1 -d 4 -p sr -e 1547 -c 2 -a 0 -i 21 -k RTR
h -t 13.580816405 -s 1 -d 4 -p sr -e 1547 -c 2 -a 0 -i 21 -k RTR
+ -t 13.986614550 -s 5 -d 2 -p sr -e 1547 -c 2 -a 0 -i 22 -k RTR 
- -t 13.986614550 -s 5 -d 2 -p sr -e 1547 -c 2 -a 0 -i 22 -k RTR
h -t 13.986614550 -s 5 -d 2 -p sr -e 1547 -c 2 -a 0 -i 22 -k RTR
+ -t 14.000000000 -s 5 -d -1 -p cbr -e 300 -c 2 -a 0 -i 23 -k AGT 
- -t 14.000000000 -s 5 -d -1 -p cbr -e 300 -c 2 -a 0 -i 23 -k AGT
h -t 14.000000000 -s 5 -d -1 -p cbr -e 300 -c 2 -a 0 -i 23 -k AGT
+ -t 14.014668589 -s 5 -d 3 -p sr -e 1547 -c 2 -a 0 -i 23 -k RTR 
- -t 14.014668589 -s 5 -d 3 -p sr -e 1547 -c 2 -a 0 -i 23 -k RTR
h -t 14.014668589 -s 5 -d 3 -p sr -e 1547 -c 2 -a 0 -i 23 -k RTR
+ -t 14.042854136 -s 5 -d 3 -p sr -e 1547 -c 2 -a 0 -i 23 -k RTR 
- -t 14.042854136 -s 5 -d 3 -p sr -e 1547 -c 2 -a 0 -i 23 -k RTR
h -t 14.042854136 -s 5 -d 3 -p sr -e 1547 -c 2 -a 0 -i 23 -k RTR
+ -t 14.045835183 -s 5 -d 3 -p sr -e 1547 -c 2 -a 0 -i 23 -k RTR 